{"author":"HeatherCopes","questions":[{"type":"quiz","question":"Boiling points and freezing points are examples of","time":20000,"points":true,"pointsMultiplier":1,"choices":[{"answer":"chemical properties","correct":false},{"answer":"energy","correct":false},{"answer":"physical properties","correct":true},{"answer":"matter","correct":false}],"image":"","resources":"","video":{"id":"","startTime":0,"endTime":0,"service":"youtube","fullUrl":""},"questionFormat":0},{"type":"quiz","question":"During which change of state do atoms or molecules become more ordered ?","time":20000,"points":true,"pointsMultiplier":1,"choices":[{"answer":"boiling","correct":false},{"answer":"melting","correct":false},{"answer":"condensation","correct":true},{"answer":"sublimation","correct":false}],"image":"","resources":"","video":{"id":"","startTime":0,"endTime":0,"service":"youtube","fullUrl":""},"questionFormat":0},{"type":"quiz","question":"Which of these describes what happens as the temperature of a gas in a balloon increases?","time":20000,"points":true,"pointsMultiplier":1,"choices":[{"answer":"The speed of the particles decreases.","correct":false},{"answer":"The volume of the gas and speed of the particles increases.","correct":true},{"answer":"The volume decreases.","correct":false},{"answer":"The pressure and the volume decreases.","correct":false}],"image":"","resources":"","video":{"id":"","startTime":0,"endTime":0,"service":"youtube","fullUrl":""},"questionFormat":0},{"type":"quiz","question":"Dew collects on a spider web in the early morning. This is an example of","time":20000,"points":true,"pointsMultiplier":1,"choices":[{"answer":"condensation","correct":true},{"answer":"sublimation","correct":false},{"answer":"evaporation","correct":false},{"answer":"melting","correct":false}],"image":"","resources":"","video":{"id":"","startTime":0,"endTime":0,"service":"youtube","fullUrl":""},"questionFormat":0},{"type":"quiz","question":"The atoms and molecules in matter","time":20000,"points":true,"pointsMultiplier":1,"choices":[{"answer":"are attracted to one another.","correct":false},{"answer":"move faster at higher temperatures.","correct":false},{"answer":"are constantly moving.","correct":false},{"answer":"All of the above","correct":true}],"image":"","resources":"","video":{"id":"","startTime":0,"endTime":0,"service":"youtube","fullUrl":""},"questionFormat":0},{"type":"quiz","question":"Particles of water that evaporate from an open container have ? than the particles that remain.","time":20000,"points":true,"pointsMultiplier":1,"choices":[{"answer":"more speed","correct":false},{"answer":"greater order and lower energy","correct":false},{"answer":"more speed and higher energy","correct":true},{"answer":"more energy","correct":false}],"image":"","resources":"","video":{"id":"","startTime":0,"endTime":0,"service":"youtube","fullUrl":""},"questionFormat":0},{"type":"quiz","question":"Which of the following occurs when a liquid becomes a gas?","time":20000,"points":true,"pointsMultiplier":1,"choices":[{"answer":"The molecules give off energy.","correct":false},{"answer":"The molecules break away from one another.","correct":true},{"answer":"The molecules slow down.","correct":false},{"answer":"The molecules move closer together.","correct":false}],"image":"","resources":"","video":{"id":"","startTime":0,"endTime":0,"service":"youtube","fullUrl":""},"questionFormat":0},{"type":"quiz","question":"Which of the following is the LEAST viscous?","time":20000,"points":true,"pointsMultiplier":1,"choices":[{"answer":"honey","correct":false},{"answer":"water","correct":true},{"answer":"tar","correct":false},{"answer":"lava","correct":false}],"image":"","resources":"","video":{"id":"","startTime":0,"endTime":0,"service":"youtube","fullUrl":""},"questionFormat":0},{"type":"quiz","question":"In a gaseous state, molecules","time":20000,"points":true,"pointsMultiplier":1,"choices":[{"answer":"move toward one another","correct":false},{"answer":"have little empty space between them","correct":false},{"answer":"move fast enough to break away completely from one another","correct":true},{"answer":"All of the above.","correct":false}],"image":"","resources":"","video":{"id":"","startTime":0,"endTime":0,"service":"youtube","fullUrl":""},"questionFormat":0},{"type":"quiz","question":"During a change of state, the _____ of a substance changes.","time":20000,"points":true,"pointsMultiplier":1,"choices":[{"answer":"energy","correct":true},{"answer":"identity","correct":false},{"answer":"boiling point","correct":false},{"answer":"color","correct":false}],"image":"","resources":"","video":{"id":"","startTime":0,"endTime":0,"service":"youtube","fullUrl":""},"questionFormat":0},{"type":"quiz","question":"The temperature at which a substance changes from a solid to a liquid is its","time":20000,"points":true,"pointsMultiplier":1,"choices":[{"answer":"sublimation point","correct":false},{"answer":"boiling point","correct":false},{"answer":"evaporation point","correct":false},{"answer":"melting point","correct":true}],"image":"","resources":"","video":{"id":"","startTime":0,"endTime":0,"service":"youtube","fullUrl":""},"questionFormat":0},{"type":"quiz","question":"Freezing and ____ occur at the same temperature.","time":20000,"points":true,"pointsMultiplier":1,"choices":[{"answer":"vaporization","correct":false},{"answer":"melting","correct":true},{"answer":"condensation","correct":false},{"answer":"sublimation","correct":false}],"image":"","resources":"","video":{"id":"","startTime":0,"endTime":0,"service":"youtube","fullUrl":""},"questionFormat":0},{"type":"quiz","question":"Which of the following statements describes evaporation?","time":20000,"points":true,"pointsMultiplier":1,"choices":[{"answer":"Evaporation is a form of vaporization.","correct":false},{"answer":"Evaporation occurs at the surface of a liquid.","correct":false},{"answer":"Evaporation occurs in a liquid below its boiling point.","correct":false},{"answer":"All of the above.","correct":true}],"image":"","resources":"","video":{"id":"","startTime":0,"endTime":0,"service":"youtube","fullUrl":""},"questionFormat":0},{"type":"quiz","question":"On Earth, natural ________ are found in lightning and fire.","time":20000,"points":true,"pointsMultiplier":1,"choices":[{"answer":"solids","correct":false},{"answer":"liquids","correct":false},{"answer":"gases","correct":false},{"answer":"plasmas","correct":true}],"image":"","resources":"","video":{"id":"","startTime":0,"endTime":0,"service":"youtube","fullUrl":""},"questionFormat":0},{"type":"quiz","question":"Water from a lake enters the atmosphere through the process of","time":20000,"points":true,"pointsMultiplier":1,"choices":[{"answer":"sublimation","correct":false},{"answer":"vaporization","correct":true},{"answer":"condensation","correct":false},{"answer":"melting","correct":false}],"image":"","resources":"","video":{"id":"","startTime":0,"endTime":0,"service":"youtube","fullUrl":""},"questionFormat":0},{"type":"quiz","question":"Fog forms when some of the gaseous water in air condenses to form tiny drops of liquid water.","time":20000,"points":true,"pointsMultiplier":1,"choices":[{"answer":"This occurs when the air temperature drops.","correct":true},{"answer":"This occurs when there is no humidity.","correct":false},{"answer":"This occurs when the air temperature rises.","correct":false},{"answer":"This occurs when the wind blows.","correct":false}],"image":"","resources":"","video":{"id":"","startTime":0,"endTime":0,"service":"youtube","fullUrl":""},"questionFormat":0},{"type":"quiz","question":"___________ are the physical forms in which a substance can exist.","time":20000,"points":true,"pointsMultiplier":1,"choices":[{"answer":"Chemical properties","correct":false},{"answer":"Atomic numbers","correct":false},{"answer":"States of matter","correct":true},{"answer":"Reactions","correct":false}],"image":"","resources":"","video":{"id":"","startTime":0,"endTime":0,"service":"youtube","fullUrl":""},"questionFormat":0},{"type":"quiz","question":"The drops of water that appear on the outside of a glass of cold juice on a warm day is","time":20000,"points":true,"pointsMultiplier":1,"choices":[{"answer":"rain","correct":false},{"answer":"condensation","correct":true},{"answer":"dew","correct":false},{"answer":"evaporation","correct":false}],"image":"","resources":"","video":{"id":"","startTime":0,"endTime":0,"service":"youtube","fullUrl":""},"questionFormat":0},{"type":"quiz","question":"The state in which matter takes the shape of its container and has a definite volume is","time":20000,"points":true,"pointsMultiplier":1,"choices":[{"answer":"solid","correct":false},{"answer":"liquid","correct":true},{"answer":"gas","correct":false},{"answer":"plasma","correct":false}],"image":"","resources":"","video":{"id":"","startTime":0,"endTime":0,"service":"youtube","fullUrl":""},"questionFormat":0},{"type":"quiz","question":"The state in which matter has a definite shape and volume is","time":20000,"points":true,"pointsMultiplier":1,"choices":[{"answer":"solid","correct":true},{"answer":"liquid","correct":false},{"answer":"gas","correct":false},{"answer":"plasma","correct":false}],"image":"","resources":"","video":{"id":"","startTime":0,"endTime":0,"service":"youtube","fullUrl":""},"questionFormat":0}],"answerMap":[4,4,4,4,4,4,4,4,4,4,4,4,4,4,4,4,4,4,4,4],"uuid":"036511c3-e6c9-4e8a-a840-0f12217d80d1"}