{"author":"Apruitt44","questions":[{"type":"quiz","question":"What tells you the number of protons on the periodic table of element chart?","time":20000,"points":true,"pointsMultiplier":1,"choices":[{"answer":"Atomic Mass","correct":false},{"answer":"Atomic Number","correct":true},{"answer":"Symbol Name","correct":false},{"answer":"Group Number","correct":false}],"image":"","video":{"id":"","startTime":0,"endTime":0,"service":"youtube"},"questionFormat":0},{"type":"quiz","question":"The group number tells you....","time":20000,"points":true,"pointsMultiplier":1,"choices":[{"answer":"the valence electrons","correct":true},{"answer":"the&nbsp;number of electrons","correct":false},{"answer":"the number of neutrons","correct":false},{"answer":"the atomic weight","correct":false}],"image":"","video":{"id":"","startTime":0,"endTime":0,"service":"youtube"},"questionFormat":0},{"type":"quiz","question":"How do you round the atomic weight?","time":20000,"points":true,"pointsMultiplier":1,"choices":[{"answer":"round down","correct":false},{"answer":"round up","correct":false},{"answer":"round to the nearest whole number","correct":true},{"answer":"don't round","correct":false}],"image":"","video":{"id":"","startTime":0,"endTime":0,"service":"youtube"},"questionFormat":0},{"type":"quiz","question":"What is matter?","time":20000,"points":true,"pointsMultiplier":1,"choices":[{"answer":"the atomic weight of an atom","correct":false},{"answer":"Anything that takes up space","correct":true},{"answer":"heat","correct":false},{"answer":"light","correct":false}],"image":"","video":{"id":"","startTime":0,"endTime":0,"service":"youtube"},"questionFormat":0},{"type":"quiz","question":"Who discovered that neutrons are in the nucleus and have no charge?","time":20000,"points":true,"pointsMultiplier":1,"choices":[{"answer":"Neil Bohr","correct":false},{"answer":"James Chadwick","correct":true},{"answer":"Ernest Rutheford","correct":false},{"answer":"J.J. Thompson","correct":false}],"image":"","video":{"id":"","startTime":0,"endTime":0,"service":"youtube"},"questionFormat":0},{"type":"quiz","question":"Who concluded that electrons orbit around the nucleus of an atom?","time":20000,"points":true,"pointsMultiplier":1,"choices":[{"answer":"James Chadwick","correct":false},{"answer":"Neil Bohr","correct":true},{"answer":"Ernest Rutheford","correct":false},{"answer":"J.J. Thompson","correct":false}],"image":"","video":{"id":"","startTime":0,"endTime":0,"service":"youtube"},"questionFormat":0},{"type":"quiz","question":"Name the three particles of an element.","time":20000,"points":true,"pointsMultiplier":1,"choices":[{"answer":"protons, electrons, atomic number","correct":false},{"answer":"electrons, protons, neutrons","correct":true},{"answer":"compunds, mixtures, and elements","correct":false},{"answer":"mass number, atomic weight, atomic number","correct":false}],"image":"","video":{"id":"","startTime":0,"endTime":0,"service":"youtube"},"questionFormat":0},{"type":"quiz","question":"The __of an element is the total number of protons and neutrons in the ___of an atom.&nbsp;","time":20000,"points":true,"pointsMultiplier":1,"choices":[{"answer":"atomic weight, symbol","correct":false},{"answer":"atomic number, nucleus","correct":true},{"answer":"nucleus, atomic symbol","correct":false},{"answer":"atomic name, atomic number","correct":false}],"image":"","video":{"id":"","startTime":0,"endTime":0,"service":"youtube"},"questionFormat":0},{"type":"quiz","question":"2 or more elements or compunds, and they are not chemically combined.&nbsp;&nbsp;","time":20000,"points":true,"pointsMultiplier":1,"choices":[{"answer":"solution","correct":false},{"answer":"element","correct":false},{"answer":"mixture","correct":true},{"answer":"compound","correct":false}],"image":"","video":{"id":"","startTime":0,"endTime":0,"service":"youtube"},"questionFormat":0},{"type":"quiz","question":"Is salt a compound or a mixture?","time":20000,"points":true,"pointsMultiplier":1,"choices":[{"answer":"compound","correct":true},{"answer":"mixture","correct":false}],"image":"","video":{"id":"","startTime":0,"endTime":0,"service":"youtube"},"questionFormat":0},{"type":"quiz","question":"The theory that electrons do not orbit, but move at a high speed in a cloud is called__?","time":20000,"points":true,"pointsMultiplier":1,"choices":[{"answer":"Bohrs Theory","correct":false},{"answer":"Modern Theory","correct":true},{"answer":"Atomic Theory","correct":false},{"answer":"Periodic Table","correct":false}],"image":"","video":{"id":"","startTime":0,"endTime":0,"service":"youtube"},"questionFormat":0},{"type":"quiz","question":"Substances composed of 2 or more chemically combined&nbsp;elements are __?&nbsp;","time":20000,"points":true,"pointsMultiplier":1,"choices":[{"answer":"Molecules","correct":false},{"answer":"Mixtures","correct":false},{"answer":"Compounds","correct":true},{"answer":"Pure substance","correct":false}],"image":"","video":{"id":"","startTime":0,"endTime":0,"service":"youtube"},"questionFormat":0},{"type":"quiz","question":"Matter that has definite chemical and physical properties is called__?","time":20000,"points":true,"pointsMultiplier":1,"choices":[{"answer":"compound","correct":false},{"answer":"elements","correct":false},{"answer":"pure substance","correct":true},{"answer":"mixture","correct":false}],"image":"","video":{"id":"","startTime":0,"endTime":0,"service":"youtube"},"questionFormat":0},{"type":"quiz","question":"What model is used to show valence electrons?","time":20000,"points":true,"pointsMultiplier":1,"choices":[{"answer":"Bohrs","correct":false},{"answer":"Lewis","correct":true},{"answer":"Dalton","correct":false},{"answer":"Thompson","correct":false}],"image":"","video":{"id":"","startTime":0,"endTime":0,"service":"youtube"},"questionFormat":0},{"type":"quiz","question":"An element in group 6 has ____ valence electrons.","time":20000,"points":true,"pointsMultiplier":1,"choices":[{"answer":"5","correct":false},{"answer":"4","correct":false},{"answer":"6","correct":true},{"answer":"2","correct":false}],"image":"","video":{"id":"","startTime":0,"endTime":0,"service":"youtube"},"questionFormat":0},{"type":"quiz","question":"What is the atomic mass?","time":20000,"points":true,"pointsMultiplier":1,"choices":[{"answer":"12.0107","correct":false},{"answer":"12","correct":true},{"answer":"13","correct":false},{"answer":"12.1","correct":false}],"image":"http://s3-eu-west-1.amazonaws.com/lecturequizuploads/056ec9d0-97ac-4bc1-82cb-c0c5bf50fcd7","imageMetadata":{"id":"056ec9d0-97ac-4bc1-82cb-c0c5bf50fcd7"},"video":{"id":"","startTime":0,"endTime":0,"service":"youtube"},"questionFormat":0},{"type":"quiz","question":"How many protons and neutons does Carbon have?","time":20000,"points":true,"pointsMultiplier":1,"choices":[{"answer":"6, 5","correct":false},{"answer":"6,12","correct":false},{"answer":"6,6","correct":true},{"answer":"12,6","correct":false}],"image":"http://s3-eu-west-1.amazonaws.com/lecturequizuploads/e991cc20-5a64-40c3-9588-9395171f7851","imageMetadata":{"id":"e991cc20-5a64-40c3-9588-9395171f7851"},"video":{"id":"","startTime":0,"endTime":0,"service":"youtube"},"questionFormat":0},{"type":"quiz","question":"What is the atomic mass?","time":20000,"points":true,"pointsMultiplier":1,"choices":[{"answer":"131.2","correct":false},{"answer":"131.293","correct":false},{"answer":"131","correct":true},{"answer":"132","correct":false}],"image":"http://s3-eu-west-1.amazonaws.com/lecturequizuploads/36dd4534-c0df-4f23-92f4-f16f549cacfc","imageMetadata":{"id":"36dd4534-c0df-4f23-92f4-f16f549cacfc"},"video":{"id":"","startTime":0,"endTime":0,"service":"youtube"},"questionFormat":0},{"type":"quiz","question":"How many protons, electrons, and neutrons does Xe have?","time":20000,"points":true,"pointsMultiplier":1,"choices":[{"answer":"77,54,54","correct":false},{"answer":"5,4,77","correct":false},{"answer":"54,54,77","correct":true},{"answer":"54,77,50","correct":false}],"image":"http://s3-eu-west-1.amazonaws.com/lecturequizuploads/acc6bf63-c96e-41a5-ae52-734741a39f4e","imageMetadata":{"id":"acc6bf63-c96e-41a5-ae52-734741a39f4e"},"video":{"id":"","startTime":0,"endTime":0,"service":"youtube"},"questionFormat":0},{"type":"quiz","question":"What period and group is Cl?","time":20000,"points":true,"pointsMultiplier":1,"choices":[{"answer":"4,5","correct":false},{"answer":"3,7","correct":true},{"answer":"7,3","correct":false},{"answer":"6,3","correct":false}],"image":"http://s3-eu-west-1.amazonaws.com/lecturequizuploads/59f7d305-ccf7-4efc-88ad-1c78e4555c58","imageMetadata":{"id":"59f7d305-ccf7-4efc-88ad-1c78e4555c58"},"video":{"id":"","startTime":0,"endTime":0,"service":"youtube"},"questionFormat":0},{"type":"quiz","question":"What element is period 2, group 8?","time":20000,"points":true,"pointsMultiplier":1,"choices":[{"answer":"Calcium","correct":false},{"answer":"Hydrogen","correct":false},{"answer":"Flourine","correct":false},{"answer":"Neon","correct":true}],"image":"http://s3-eu-west-1.amazonaws.com/lecturequizuploads/6d9db229-6892-4d66-b2d0-bac64615246d","imageMetadata":{"id":"6d9db229-6892-4d66-b2d0-bac64615246d"},"video":{"id":"","startTime":0,"endTime":0,"service":"youtube"},"questionFormat":0},{"type":"quiz","question":"Things that can be observed without changing the make-up or identity of matter are","time":20000,"points":true,"pointsMultiplier":1,"choices":[{"answer":"density","correct":false},{"answer":"matter","correct":false},{"answer":"physical properties","correct":true},{"answer":"chemical change","correct":false}],"image":"","video":{"id":"","startTime":0,"endTime":0,"service":"youtube"},"questionFormat":0},{"type":"quiz","question":"The three states of matter are____.","time":20000,"points":true,"pointsMultiplier":1,"choices":[{"answer":"melting, solid, freezing","correct":false},{"answer":"solid, water, condensation","correct":false},{"answer":"liquid, metal, solid","correct":false},{"answer":"solid, liquid, gas","correct":true}],"image":"","video":{"id":"","startTime":0,"endTime":0,"service":"youtube"},"questionFormat":0},{"type":"quiz","question":"The ability to be pressed or pounded into a thin sheet.","time":20000,"points":true,"pointsMultiplier":1,"choices":[{"answer":"density","correct":false},{"answer":"solubility","correct":false},{"answer":"boiling point","correct":false},{"answer":"malleability","correct":true}],"image":"","video":{"id":"","startTime":0,"endTime":0,"service":"youtube"},"questionFormat":0},{"type":"quiz","question":"The melting point of ice is?","time":20000,"points":true,"pointsMultiplier":1,"choices":[{"answer":"36C","correct":false},{"answer":"0C","correct":true},{"answer":"12C","correct":false},{"answer":"45C","correct":false}],"image":"","video":{"id":"","startTime":0,"endTime":0,"service":"youtube"},"questionFormat":0},{"type":"quiz","question":"Boiling point of water is?","time":20000,"points":true,"pointsMultiplier":1,"choices":[{"answer":"0C","correct":false},{"answer":"32C","correct":false},{"answer":"100C","correct":true},{"answer":"45C","correct":false}],"image":"","video":{"id":"","startTime":0,"endTime":0,"service":"youtube"},"questionFormat":0},{"type":"quiz","question":"Electrically charged atoms are called ___?","time":20000,"points":true,"pointsMultiplier":1,"choices":[{"answer":"ion","correct":true},{"answer":"molecule","correct":false},{"answer":"bond","correct":false},{"answer":"mixture","correct":false}],"image":"","video":{"id":"","startTime":0,"endTime":0,"service":"youtube"},"questionFormat":0},{"type":"quiz","question":"Mixtures that are not mixed evenly and they contain their own properties are __?","time":20000,"points":true,"pointsMultiplier":1,"choices":[{"answer":"solution","correct":false},{"answer":"heterogeneous","correct":true},{"answer":"homogeneous","correct":false},{"answer":"liquids","correct":false}],"image":"","video":{"id":"","startTime":0,"endTime":0,"service":"youtube"},"questionFormat":0},{"type":"quiz","question":"Mixtures that are evenly mixed throughout are called__.","time":20000,"points":true,"pointsMultiplier":1,"choices":[{"answer":"mixed","correct":false},{"answer":"homogeneous","correct":true},{"answer":"heterogeneous","correct":false},{"answer":"compound","correct":false}],"image":"","video":{"id":"","startTime":0,"endTime":0,"service":"youtube"},"questionFormat":0},{"type":"quiz","question":"Mixtures that are mixed thoroughly are___.","time":20000,"points":true,"pointsMultiplier":1,"choices":[{"answer":"homogeneous","correct":true},{"answer":"heterogenous","correct":false},{"answer":"compounds","correct":false},{"answer":"matter","correct":false}],"image":"","video":{"id":"","startTime":0,"endTime":0,"service":"youtube"},"questionFormat":0},{"type":"quiz","question":"In what state does pure Carbon exist at room temperature?","time":20000,"points":true,"pointsMultiplier":1,"choices":[{"answer":"solid","correct":true},{"answer":"liquid","correct":false},{"answer":"gas","correct":false},{"answer":"mixture","correct":false}],"image":"","video":{"id":"","startTime":0,"endTime":0,"service":"youtube"},"questionFormat":0},{"type":"quiz","question":"In which state of matter do atoms vibrate but remain in fixed position?","time":20000,"points":true,"pointsMultiplier":1,"choices":[{"answer":"liquid","correct":false},{"answer":"gas","correct":false},{"answer":"solution","correct":false},{"answer":"solid","correct":true}],"image":"","video":{"id":"","startTime":0,"endTime":0,"service":"youtube"},"questionFormat":0},{"type":"quiz","question":"Which particle orbits an atoms nucleus?","time":20000,"points":true,"pointsMultiplier":1,"choices":[{"answer":"isotope","correct":false},{"answer":"proton","correct":false},{"answer":"neutron","correct":false},{"answer":"electron","correct":true}],"image":"","video":{"id":"","startTime":0,"endTime":0,"service":"youtube"},"questionFormat":0},{"type":"quiz","question":"Which describes the snack?","time":20000,"points":true,"pointsMultiplier":1,"choices":[{"answer":"solution","correct":false},{"answer":"heterogeneous mixture","correct":true},{"answer":"homogeneous mixture","correct":false},{"answer":"compoud","correct":false}],"image":"http://s3-eu-west-1.amazonaws.com/lecturequizuploads/c927b4a3-aa73-4fee-8a0a-b5b9b726e85d_opt","imageMetadata":{"id":"c927b4a3-aa73-4fee-8a0a-b5b9b726e85d"},"video":{"id":"","startTime":0,"endTime":0,"service":"youtube"},"questionFormat":0},{"type":"quiz","question":"Atoms of the same element with different numbers of electrons.","time":20000,"points":true,"pointsMultiplier":1,"choices":[{"answer":"ion","correct":false},{"answer":"proton","correct":false},{"answer":"isotope","correct":true},{"answer":"neutron","correct":false}],"image":"","video":{"id":"","startTime":0,"endTime":0,"service":"youtube"},"questionFormat":0}],"answerMap":[4,4,4,4,4,4,4,4,4,2,4,4,4,4,4,4,4,4,4,4,4,4,4,4,4,4,4,4,4,4,4,4,4,4,4],"uuid":"5ada07a1-9aee-4343-a8a8-d9b509375e80"}