{"author":"ilanbrauns","questions":[{"type":"quiz","question":"What is Tungsten's atomic symbol?","time":10000,"points":true,"pointsMultiplier":1,"choices":[{"answer":"Y","correct":false},{"answer":"W","correct":true},{"answer":"X","correct":false},{"answer":"Z","correct":false}],"image":"http://s3-eu-west-1.amazonaws.com/lecturequizuploads/476ce046-a310-4441-842f-470b10267f57_opt","imageMetadata":{"id":"476ce046-a310-4441-842f-470b10267f57"},"video":{"id":"","startTime":0,"endTime":0,"service":"youtube"},"questionFormat":0},{"type":"quiz","question":"How many letters are in W?","time":10000,"points":true,"pointsMultiplier":1,"choices":[{"answer":"6","correct":false},{"answer":"7","correct":false},{"answer":"8","correct":true},{"answer":"9","correct":false}],"image":"http://s3-eu-west-1.amazonaws.com/lecturequizuploads/b3482d73-fb5e-4946-b846-ca0cbe531301_opt","imageMetadata":{"id":"b3482d73-fb5e-4946-b846-ca0cbe531301"},"video":{"id":"","startTime":0,"endTime":0,"service":"youtube"},"questionFormat":0},{"type":"quiz","question":"What is the atomic number of Tungsten?","time":10000,"points":true,"pointsMultiplier":1,"choices":[{"answer":"1738","correct":false},{"answer":"64","correct":false},{"answer":"99","correct":false},{"answer":"74","correct":true}],"image":"http://s3-eu-west-1.amazonaws.com/lecturequizuploads/f96e8e9b-b541-49df-98ec-affe95a23a5a_opt","imageMetadata":{"id":"f96e8e9b-b541-49df-98ec-affe95a23a5a"},"video":{"id":"","startTime":0,"endTime":0,"service":"youtube"},"questionFormat":0},{"type":"quiz","question":"When was Tungsten founded?","time":10000,"points":true,"pointsMultiplier":1,"choices":[{"answer":"1492","correct":false},{"answer":"1738","correct":false},{"answer":"1783","correct":true},{"answer":"1781","correct":false}],"image":"http://s3-eu-west-1.amazonaws.com/lecturequizuploads/f68fa2c5-97d7-4cf2-b4a3-016c4cc6a883_opt","imageMetadata":{"id":"f68fa2c5-97d7-4cf2-b4a3-016c4cc6a883"},"video":{"id":"","startTime":0,"endTime":0,"service":"youtube"},"questionFormat":0},{"type":"quiz","question":"How many neutrons are in Tungsten?","time":10000,"points":true,"pointsMultiplier":1,"choices":[{"answer":"110","correct":true},{"answer":"101","correct":false},{"answer":"011","correct":false},{"answer":"112","correct":false}],"image":"http://s3-eu-west-1.amazonaws.com/lecturequizuploads/49e496ac-f1c9-4554-af41-be8f28edcc98_opt","imageMetadata":{"id":"49e496ac-f1c9-4554-af41-be8f28edcc98"},"video":{"id":"","startTime":0,"endTime":0,"service":"youtube"},"questionFormat":0},{"type":"quiz","question":"What is the atomic mass of Tungsten(rounded to nearest whole number)?","time":10000,"points":true,"pointsMultiplier":1,"choices":[{"answer":"183","correct":false},{"answer":"184","correct":true},{"answer":"138","correct":false},{"answer":"1738","correct":false}],"image":"http://s3-eu-west-1.amazonaws.com/lecturequizuploads/5add62a7-216a-42d2-8da9-ed07ef6c4aaf_opt","imageMetadata":{"id":"5add62a7-216a-42d2-8da9-ed07ef6c4aaf"},"video":{"id":"","startTime":0,"endTime":0,"service":"youtube"},"questionFormat":0},{"type":"quiz","question":"What is the density of Tungsten (rounded to the whole number)?","time":10000,"points":true,"pointsMultiplier":1,"choices":[{"answer":"19","correct":true},{"answer":"4","correct":false},{"answer":"39","correct":false},{"answer":"1","correct":false}],"image":"http://s3-eu-west-1.amazonaws.com/lecturequizuploads/dcbefa91-4b3a-4f7c-8450-eeed2241328a_opt","imageMetadata":{"id":"dcbefa91-4b3a-4f7c-8450-eeed2241328a"},"video":{"id":"","startTime":0,"endTime":0,"service":"youtube"},"questionFormat":0},{"type":"quiz","question":"How many orbitals does&nbsp;Tungsten have?","time":10000,"points":true,"pointsMultiplier":1,"choices":[{"answer":"7","correct":false},{"answer":"6","correct":true},{"answer":"5","correct":false},{"answer":"4","correct":false}],"image":"http://s3-eu-west-1.amazonaws.com/lecturequizuploads/f8f8ac55-39a2-4759-a83a-a3eeadbe5657_opt","imageMetadata":{"id":"f8f8ac55-39a2-4759-a83a-a3eeadbe5657"},"video":{"id":"","startTime":0,"endTime":0,"service":"youtube"},"questionFormat":0},{"type":"quiz","question":"What state of matter is Tungsten naturally in?","time":10000,"points":true,"pointsMultiplier":1,"choices":[{"answer":"Liquid","correct":false},{"answer":"Solid","correct":true},{"answer":"Gas","correct":false},{"answer":"Plasma","correct":false}],"image":"http://s3-eu-west-1.amazonaws.com/lecturequizuploads/80fb6334-ce45-48e1-8910-cfcd822e4a3c_opt","imageMetadata":{"id":"80fb6334-ce45-48e1-8910-cfcd822e4a3c"},"video":{"id":"","startTime":0,"endTime":0,"service":"youtube"},"questionFormat":0},{"type":"quiz","question":"What is Tungsten's boiling point","time":10000,"points":true,"pointsMultiplier":1,"choices":[{"answer":"6191 degrees&nbsp;fahrenheit","correct":false},{"answer":"10030 degrees fahrenheit","correct":true},{"answer":"3422 degrees celsius","correct":false},{"answer":"5555 degrees celsius","correct":true}],"image":"http://s3-eu-west-1.amazonaws.com/lecturequizuploads/6fbd944c-4bde-471c-b8bb-0332bdd21f36_opt","imageMetadata":{"id":"6fbd944c-4bde-471c-b8bb-0332bdd21f36"},"video":{"id":"","startTime":0,"endTime":0,"service":"youtube"},"questionFormat":0},{"type":"quiz","question":"What is Tungsten's melting and freezing point?","time":10000,"points":true,"pointsMultiplier":1,"choices":[{"answer":"6191 degrees&nbsp;fahrenheit","correct":true},{"answer":"10030 degrees fahrenheit","correct":false},{"answer":"3422 degrees celsius","correct":true},{"answer":"5555 degrees celsius","correct":false}],"image":"http://s3-eu-west-1.amazonaws.com/lecturequizuploads/a50ac083-8df3-4fc7-837f-e49c3b811015_opt","imageMetadata":{"id":"a50ac083-8df3-4fc7-837f-e49c3b811015"},"video":{"id":"","startTime":0,"endTime":0,"service":"youtube"},"questionFormat":0},{"type":"quiz","question":"What type of metal is Tungsten?","time":10000,"points":true,"pointsMultiplier":1,"choices":[{"answer":"Aloy","correct":false},{"answer":"Transition metal","correct":true},{"answer":"Gold metal","correct":false},{"answer":"Rock metal","correct":false}],"image":"http://s3-eu-west-1.amazonaws.com/lecturequizuploads/94a82a62-fe0b-4212-b1a9-0c8175510907_opt","imageMetadata":{"id":"94a82a62-fe0b-4212-b1a9-0c8175510907"},"video":{"id":"","startTime":0,"endTime":0,"service":"youtube"},"questionFormat":0},{"type":"quiz","question":"What color is Tungsten?","time":10000,"points":true,"pointsMultiplier":1,"choices":[{"answer":"Indigo","correct":false},{"answer":"Silver","correct":true},{"answer":"Crimson red","correct":false},{"answer":"Blue","correct":false}],"image":"http://s3-eu-west-1.amazonaws.com/lecturequizuploads/23806d67-2bd6-4bc2-8b32-410211df690f_opt","imageMetadata":{"id":"23806d67-2bd6-4bc2-8b32-410211df690f"},"video":{"id":"","startTime":0,"endTime":0,"service":"youtube"},"questionFormat":0},{"type":"quiz","question":"How many electrons are on the K-shell of Tungsten?","time":10000,"points":true,"pointsMultiplier":1,"choices":[{"answer":"2","correct":true},{"answer":"8","correct":false},{"answer":"16","correct":false},{"answer":"Not listed here","correct":false}],"image":"http://s3-eu-west-1.amazonaws.com/lecturequizuploads/1e008387-9157-4ac2-a131-7ea151d79676_opt","imageMetadata":{"id":"1e008387-9157-4ac2-a131-7ea151d79676"},"video":{"id":"","startTime":0,"endTime":0,"service":"youtube"},"questionFormat":0},{"type":"quiz","question":"How many electrons are on the P-shell of Tungsten?","time":10000,"points":true,"pointsMultiplier":1,"choices":[{"answer":"2","correct":true},{"answer":"8","correct":false},{"answer":"16","correct":false},{"answer":"Not listed here","correct":false}],"image":"http://s3-eu-west-1.amazonaws.com/lecturequizuploads/fd0979fe-68e7-48de-9009-d1eb9afee855_opt","imageMetadata":{"id":"fd0979fe-68e7-48de-9009-d1eb9afee855"},"video":{"id":"","startTime":0,"endTime":0,"service":"youtube"},"questionFormat":0},{"type":"quiz","question":"Where does the word&nbsp;<i>Tungsten&nbsp;</i>originate?","time":10000,"points":true,"pointsMultiplier":1,"choices":[{"answer":"Norway","correct":false},{"answer":"Finland","correct":false},{"answer":"Sweden","correct":true},{"answer":"Djibouti","correct":false}],"image":"http://s3-eu-west-1.amazonaws.com/lecturequizuploads/fce5a385-1bfc-42d2-97e7-e1d7ca27940c_opt","imageMetadata":{"id":"fce5a385-1bfc-42d2-97e7-e1d7ca27940c"},"video":{"id":"","startTime":0,"endTime":0,"service":"youtube"},"questionFormat":0},{"type":"quiz","question":"What country owns over 50% of the world's Tungsten?","time":10000,"points":true,"pointsMultiplier":1,"choices":[{"answer":"China","correct":true},{"answer":"Russia","correct":false},{"answer":"Canada","correct":false},{"answer":"Zimbabwe","correct":false}],"image":"http://s3-eu-west-1.amazonaws.com/lecturequizuploads/bd7f81ab-2417-412e-9b6a-56b09b64fe25_opt","imageMetadata":{"id":"bd7f81ab-2417-412e-9b6a-56b09b64fe25"},"video":{"id":"","startTime":0,"endTime":0,"service":"youtube"},"questionFormat":0},{"type":"quiz","question":"How much does Tungsten cost in USD (For one kg)?","time":10000,"points":true,"pointsMultiplier":1,"choices":[{"answer":"17 USD","correct":false},{"answer":"38 USD","correct":false},{"answer":"22 USD","correct":true},{"answer":"9 USD","correct":false}],"image":"http://s3-eu-west-1.amazonaws.com/lecturequizuploads/bc2f5282-f530-4a73-85ac-48361501bf21_opt","imageMetadata":{"id":"bc2f5282-f530-4a73-85ac-48361501bf21"},"video":{"id":"","startTime":0,"endTime":0,"service":"youtube"},"questionFormat":0},{"type":"quiz","question":"Which one is not something Tungsten is used to make often?","time":10000,"points":true,"pointsMultiplier":1,"choices":[{"answer":"Wedding ring","correct":false},{"answer":"Nail bits","correct":false},{"answer":"Stuffed animals","correct":true},{"answer":"Vineyard Vines sweatshirts","correct":true}],"image":"http://s3-eu-west-1.amazonaws.com/lecturequizuploads/84dd9e11-73c6-4383-b4f5-20e87abcd270_opt","imageMetadata":{"id":"84dd9e11-73c6-4383-b4f5-20e87abcd270"},"video":{"id":"","startTime":0,"endTime":0,"service":"youtube"},"questionFormat":0},{"type":"quiz","question":"Which of these could be used to describe Tungsten?","time":10000,"points":true,"pointsMultiplier":1,"choices":[{"answer":"Hard","correct":true},{"answer":"Smooth","correct":true},{"answer":"Light","correct":false},{"answer":"Brown","correct":false}],"image":"http://s3-eu-west-1.amazonaws.com/lecturequizuploads/58303a9a-5c56-4e24-adcf-aecd45c03682_opt","imageMetadata":{"id":"58303a9a-5c56-4e24-adcf-aecd45c03682"},"video":{"id":"","startTime":0,"endTime":0,"service":"youtube"},"questionFormat":0}],"answerMap":[4,4,4,4,4,4,4,4,4,4,4,4,4,4,4,4,4,4,4,4],"uuid":"66043b69-82bd-4a93-8626-ad19417ad059"}