{"author":"Jensol17","questions":[{"type":"quiz","question":"Which color group on the periodic table represents the Halogens?","time":20000,"points":true,"pointsMultiplier":1,"choices":[{"answer":"Pink","correct":false},{"answer":"Blue","correct":false},{"answer":"Yellow","correct":true},{"answer":"Red","correct":false}],"image":"http://s3-eu-west-1.amazonaws.com/lecturequizuploads/46781b95-1116-48d2-8a42-7caf887efbdb","imageMetadata":{"id":"46781b95-1116-48d2-8a42-7caf887efbdb","effects":[],"resources":""},"resources":"","video":{"id":"","startTime":0,"endTime":0,"service":"youtube","fullUrl":""},"questionFormat":0},{"type":"quiz","question":"The color of the Noble gas group on the periodic table is?","time":20000,"points":true,"pointsMultiplier":1,"choices":[{"answer":"Red","correct":false},{"answer":"blue","correct":true},{"answer":"orange","correct":false},{"answer":"Yellow","correct":false}],"image":"http://s3-eu-west-1.amazonaws.com/lecturequizuploads/e8b5f174-b70f-4fa7-92ce-9ec865ae56a2","imageMetadata":{"id":"e8b5f174-b70f-4fa7-92ce-9ec865ae56a2","effects":[],"resources":""},"resources":"","video":{"id":"","startTime":0,"endTime":0,"service":"youtube","fullUrl":""},"questionFormat":0},{"type":"quiz","question":"What are the names of the elements in group 1?","time":30000,"points":true,"pointsMultiplier":1,"choices":[{"answer":"Carbon family","correct":false},{"answer":"Halogens","correct":false},{"answer":"Alkali metals","correct":true},{"answer":"Alkaline Earth Metals","correct":false}],"image":"","resources":"","video":{"id":"","startTime":0,"endTime":0,"service":"youtube","fullUrl":""},"questionFormat":0},{"type":"quiz","question":"Elements in the same Group have similar properties to one another. True / False","time":30000,"points":true,"pointsMultiplier":1,"choices":[{"answer":"True","correct":true},{"answer":"False","correct":false}],"image":"","resources":"","video":{"id":"","startTime":0,"endTime":0,"service":"youtube","fullUrl":""},"questionFormat":0},{"type":"quiz","question":"Elements in the same Period have the same outermost s and p sub-shells.  True or False","time":30000,"points":true,"pointsMultiplier":1,"choices":[{"answer":"True","correct":true},{"answer":"False","correct":false}],"image":"","resources":"","video":{"id":"","startTime":0,"endTime":0,"service":"youtube","fullUrl":""},"questionFormat":0},{"type":"quiz","question":"The number of electron shells an atom has increases as you go down a Group. True or False","time":10000,"points":true,"pointsMultiplier":1,"choices":[{"answer":"True","correct":true},{"answer":"False","correct":false}],"image":"","resources":"","video":{"id":"","startTime":0,"endTime":0,"service":"youtube","fullUrl":""},"questionFormat":0},{"type":"quiz","question":"Ionization energy increasing down a group.  True or False","time":20000,"points":true,"pointsMultiplier":1,"choices":[{"answer":"True","correct":false},{"answer":"False","correct":true}],"image":"","resources":"","video":{"id":"","startTime":0,"endTime":0,"service":"youtube","fullUrl":""},"questionFormat":0},{"type":"quiz","question":"Which element has an electron configuration of 1s<sup>2</sup>2s<sup>2</sup>2p<sup>6</sup>3s<sup>1</sup> ?","time":30000,"points":true,"pointsMultiplier":1,"choices":[{"answer":"Strontium","correct":false},{"answer":"Sodium","correct":true},{"answer":"Potassium","correct":false},{"answer":"Carbon","correct":false}],"image":"","resources":"","video":{"id":"","startTime":0,"endTime":0,"service":"youtube","fullUrl":""},"questionFormat":0},{"type":"quiz","question":"Atomic Radius gets larger going....","time":30000,"points":true,"pointsMultiplier":1,"choices":[{"answer":"left to right in a period","correct":false},{"answer":"All atoms have the same radius","correct":false},{"answer":"Top to bottom in a group","correct":true},{"answer":"bottom to top in a period","correct":false}],"image":"","resources":"","video":{"id":"","startTime":0,"endTime":0,"service":"youtube","fullUrl":""},"questionFormat":0},{"type":"quiz","question":"Coulomb's Law says opposite charges attract.  What two factors help that attraction?","time":30000,"points":true,"pointsMultiplier":1,"choices":[{"answer":"Short distances and more protons","correct":true},{"answer":"Short distances and fewer protons","correct":false},{"answer":"Long Distances and more protons","correct":false},{"answer":"Long distances and fewer protons","correct":false}],"image":"","resources":"","video":{"id":"","startTime":0,"endTime":0,"service":"youtube","fullUrl":""},"questionFormat":0},{"type":"quiz","question":"Most elements in the Periodic Table are metals. True or False","time":20000,"points":true,"pointsMultiplier":1,"choices":[{"answer":"True","correct":true},{"answer":"False","correct":false}],"image":"","resources":"","video":{"id":"","startTime":0,"endTime":0,"service":"youtube","fullUrl":""},"questionFormat":0},{"type":"quiz","question":"Some elements have properties of both metals and non-metals. True or False","time":10000,"points":true,"pointsMultiplier":1,"choices":[{"answer":"True","correct":true},{"answer":"False","correct":false}],"image":"","resources":"","video":{"id":"","startTime":0,"endTime":0,"service":"youtube","fullUrl":""},"questionFormat":0},{"type":"quiz","question":"Which of these does NOT describe carbon","time":30000,"points":true,"pointsMultiplier":1,"choices":[{"answer":"p block","correct":false},{"answer":"valence of 4","correct":false},{"answer":"nonmetal","correct":false},{"answer":"s block","correct":true}],"image":"","resources":"","video":{"id":"","startTime":0,"endTime":0,"service":"youtube","fullUrl":""},"questionFormat":0},{"type":"quiz","question":"What element has this abbreviated configuration?  [Ne]3s<sup>2</sup>","time":30000,"points":true,"pointsMultiplier":1,"choices":[{"answer":"Lead","correct":false},{"answer":"Argon","correct":false},{"answer":"Krypton","correct":false},{"answer":"Magnesium","correct":true}],"image":"","resources":"","video":{"id":"","startTime":0,"endTime":0,"service":"youtube","fullUrl":""},"questionFormat":0},{"type":"quiz","question":"You can put two electrons into an orbital but they must...","time":30000,"points":true,"pointsMultiplier":1,"choices":[{"answer":"have the same spin shown with two arrows up","correct":false},{"answer":"Opposite spins shown with one arrow up and one down","correct":true}],"image":"","resources":"","video":{"id":"","startTime":0,"endTime":0,"service":"youtube","fullUrl":""},"questionFormat":0},{"type":"quiz","question":"The most electronegative element on the periodic table is fluorine. Why?","time":30000,"points":true,"pointsMultiplier":1,"choices":[{"answer":"It's small with low attraction for added electrons","correct":false},{"answer":"It's small with high attraction for added electrons","correct":true},{"answer":"It's big with high attraction for added electrons","correct":false},{"answer":"It's large with low attraction for added electrons","correct":false}],"image":"","resources":"","video":{"id":"","startTime":0,"endTime":0,"service":"youtube","fullUrl":""},"questionFormat":0},{"type":"quiz","question":"What are valence electrons?","time":30000,"points":true,"pointsMultiplier":1,"choices":[{"answer":"outermost s and p electrons","correct":true},{"answer":"electrons closest to the nucleus","correct":false},{"answer":"outermost p electrons","correct":false},{"answer":"outermost d electrons","correct":false}],"image":"","resources":"","video":{"id":"","startTime":0,"endTime":0,"service":"youtube","fullUrl":""},"questionFormat":0},{"type":"quiz","question":"What do all noble gases end in (except He)?","time":20000,"points":true,"pointsMultiplier":1,"choices":[{"answer":"s<sup>2</sup>p<sup>8</sup>","correct":false},{"answer":"s<sup>2</sup>","correct":false},{"answer":"s<sup>2</sup>p<sup>4</sup>","correct":false},{"answer":"s<sup>2</sup>p<sup>6</sup>","correct":true}],"image":"","resources":"","video":{"id":"","startTime":0,"endTime":0,"service":"youtube","fullUrl":""},"questionFormat":0},{"type":"quiz","question":"Mendeleev organized by mass but the current table is organized by....","time":20000,"points":true,"pointsMultiplier":1,"choices":[{"answer":"Protons","correct":true},{"answer":"Neutrons","correct":false},{"answer":"Quarks","correct":false},{"answer":"Nucleons","correct":false}],"image":"","resources":"","video":{"id":"","startTime":0,"endTime":0,"service":"youtube","fullUrl":""},"questionFormat":0},{"type":"quiz","question":"Atoms get smaller across a period because....","time":30000,"points":true,"pointsMultiplier":1,"choices":[{"answer":"more protons at a greater distance increases the attraction","correct":false},{"answer":"more electrons further away decreases the attraction","correct":false},{"answer":"more protons at the same distance increases the attraction","correct":true},{"answer":"more protons at the same distance decreases the attraction","correct":false}],"image":"","resources":"","video":{"id":"","startTime":0,"endTime":0,"service":"youtube","fullUrl":""},"questionFormat":0},{"type":"quiz","question":"How many valence electrons do the Alkaline Earth Metals have?","time":20000,"points":true,"pointsMultiplier":1,"choices":[{"answer":"1","correct":false},{"answer":"2","correct":true},{"answer":"3","correct":false},{"answer":"4","correct":false}],"layout":"CLASSIC","image":"","resources":"","video":{"id":"","startTime":0,"endTime":0,"service":"youtube","fullUrl":""},"questionFormat":0},{"type":"quiz","question":"How many valence electrons does the following have and what element is it? 1s<sup>2</sup>2s<sup>2</sup>2p<sup>6</sup>3s<sup>2</sup>3p<sup>5</sup>","time":30000,"points":true,"pointsMultiplier":1,"choices":[{"answer":"7, Bromine","correct":false},{"answer":"5, Chlorine","correct":false},{"answer":"7, Chlorine","correct":true},{"answer":"5, Bromine","correct":false}],"layout":"CLASSIC","image":"","resources":"","video":{"id":"","startTime":0,"endTime":0,"service":"youtube","fullUrl":""},"questionFormat":0},{"type":"quiz","question":"What is the electron configuration for Ti?","time":60000,"points":true,"pointsMultiplier":1,"choices":[{"answer":"1s<sup>2</sup>2s<sup>2</sup>2p<sup>6</sup>3s<sup>2</sup>3p<sup>6</sup>4s<sup>2</sup>4d<sup>2</sup>","correct":false},{"answer":"1s<sup>2</sup>2s<sup>2</sup>2p<sup>6</sup>3s<sup>2</sup>3p<sup>5</sup>4s<sup>2</sup>4d<sup>2</sup>","correct":false},{"answer":"1s<sup>2</sup>2s<sup>2</sup>2p<sup>6</sup>3s<sup>2</sup>3p<sup>6</sup>3s<sup>2</sup>4d<sup>2</sup>","correct":false},{"answer":"1s<sup>2</sup>2s<sup>2</sup>2p<sup>6</sup>3s<sup>2</sup>3p<sup>6</sup>4s<sup>2</sup>3d<sup>2</sup>","correct":true}],"layout":"CLASSIC","image":"","resources":"","video":{"id":"","startTime":0,"endTime":0,"service":"youtube","fullUrl":""},"questionFormat":0},{"type":"quiz","question":"What is the abbreviated/Noble Gas configuration for K?","time":60000,"points":true,"pointsMultiplier":1,"choices":[{"answer":"[Ne]2s<sup>1</sup>","correct":false},{"answer":"[Ar]5s<sup>1</sup>","correct":false},{"answer":"[Ar]4s<sup>1</sup>","correct":true},{"answer":"[Ar]6s<sup>1</sup>","correct":false}],"layout":"CLASSIC","image":"","resources":"","video":{"id":"","startTime":0,"endTime":0,"service":"youtube","fullUrl":""},"questionFormat":0},{"type":"quiz","question":"Which atom has a larger atomic radius: Na or P and why?","time":60000,"points":true,"pointsMultiplier":1,"choices":[{"answer":"P, b/c it has more protons and less coulombic attraction.","correct":false},{"answer":"P, b/c it has more protons and more coulombic attraction.","correct":false},{"answer":"Na, b/c it has less protons and less coulombic attraction.","correct":true},{"answer":"They have the same size atomic radius.","correct":false}],"layout":"CLASSIC","image":"","resources":"","video":{"id":"","startTime":0,"endTime":0,"service":"youtube","fullUrl":""},"questionFormat":0},{"type":"quiz","question":"Which blocks of elements make up your main group elements/representative elements?","time":30000,"points":true,"pointsMultiplier":1,"choices":[{"answer":"s and f","correct":false},{"answer":"s and p","correct":true},{"answer":"s and d","correct":false},{"answer":"p and f","correct":false}],"layout":"CLASSIC","image":"","resources":"","video":{"id":"","startTime":0,"endTime":0,"service":"youtube","fullUrl":""},"questionFormat":0},{"type":"quiz","question":"Which element has a smaller ionization energy?  Cu or Ag?","time":30000,"points":true,"pointsMultiplier":1,"choices":[{"answer":"Ag","correct":true},{"answer":"Cu","correct":false},{"answer":"They have the same size radius.","correct":false}],"layout":"CLASSIC","image":"","resources":"","video":{"id":"","startTime":0,"endTime":0,"service":"youtube","fullUrl":""},"questionFormat":0},{"type":"quiz","question":"What are 3 ways to identify Ge?","time":30000,"points":true,"pointsMultiplier":1,"choices":[{"answer":"Metalloid, p-block, Carbon Family, 4 valence","correct":true},{"answer":"Non-metal, p-block, Carbon Family, Period 4","correct":false},{"answer":"Non-metal, s-block, halogen, period 3","correct":false},{"answer":"huh?","correct":false}],"layout":"CLASSIC","image":"","resources":"","video":{"id":"","startTime":0,"endTime":0,"service":"youtube","fullUrl":""},"questionFormat":0},{"type":"quiz","question":"What are isotopes","time":20000,"points":true,"pointsMultiplier":1,"choices":[{"answer":"Two atoms with different number of neutrons","correct":true},{"answer":"Two atoms with different number of protons","correct":false},{"answer":"Two atoms with different number of electrons","correct":false},{"answer":"Two different types of atoms","correct":false}],"layout":"CLASSIC","image":"https://media.kahoot.it/efbda9dc-d016-4c4b-b579-78db3d646c1c_opt","imageMetadata":{"id":"efbda9dc-d016-4c4b-b579-78db3d646c1c","resources":""},"resources":"","video":{"id":"","startTime":0,"endTime":0,"service":"youtube","fullUrl":""},"questionFormat":0},{"type":"quiz","question":"Isotopes vary in their number of...","time":20000,"points":true,"pointsMultiplier":1,"choices":[{"answer":"Protons","correct":false},{"answer":"Electrons","correct":false},{"answer":"Neutrons","correct":true},{"answer":"All Particles","correct":false}],"layout":"CLASSIC","image":"https://media.kahoot.it/e5465574-2633-4c93-9b6d-d73090789956","imageMetadata":{"id":"e5465574-2633-4c93-9b6d-d73090789956","resources":""},"resources":"","video":{"id":"","startTime":0,"endTime":0,"service":"youtube","fullUrl":""},"questionFormat":0},{"type":"quiz","question":"Which of these is NOT an isotope of the following atom?","time":30000,"points":true,"pointsMultiplier":1,"choices":[{"answer":"An atom with 6 protons and 7 neutrons","correct":false},{"answer":"An atom with 8 protons and 6 neutrons","correct":true},{"answer":"An atom with 6 protons and 6 neutrons","correct":false},{"answer":"An ion with 6 protons and 7 neutrons","correct":false}],"layout":"CLASSIC","image":"http://s3-eu-west-1.amazonaws.com/lecturequizuploads/b147a215-7fe4-4ebc-98b9-7f4a76a1d28c","imageMetadata":{"id":"b147a215-7fe4-4ebc-98b9-7f4a76a1d28c","resources":""},"resources":"","video":{"id":"","startTime":0,"endTime":0,"service":"youtube"},"questionFormat":0},{"type":"quiz","question":"The symbol below represents an isotope of helium. How many protons and neutrons does it have?","time":20000,"points":true,"pointsMultiplier":1,"choices":[{"answer":"2 protons 3 neutrons","correct":false},{"answer":"5 protons and 5 neutrons","correct":false},{"answer":"2 protons and 1 neutrons","correct":true},{"answer":"1 proton and one neutron","correct":false}],"layout":"CLASSIC","image":"https://media.kahoot.it/7616f573-78c5-4e44-ae41-25661f628f92","imageMetadata":{"id":"7616f573-78c5-4e44-ae41-25661f628f92","contentType":"image/png","width":56,"height":49,"resources":""},"resources":"","video":{"startTime":0,"endTime":0,"service":"youtube","fullUrl":""},"questionFormat":0},{"type":"quiz","question":"How many neutrons are present in this isotope?","time":30000,"points":true,"pointsMultiplier":1,"choices":[{"answer":"13","correct":false},{"answer":"0","correct":false},{"answer":"6","correct":false},{"answer":"7","correct":true}],"layout":"CLASSIC","image":"https://media.kahoot.it/478b2cf4-8102-4566-8291-80561dd14c63","imageMetadata":{"id":"478b2cf4-8102-4566-8291-80561dd14c63","resources":""},"resources":"","video":{"id":"","startTime":0,"endTime":0,"service":"youtube","fullUrl":""},"questionFormat":0},{"type":"quiz","question":"Given the isotope notation below, calculate the number of protons.","time":20000,"points":true,"pointsMultiplier":1,"choices":[{"answer":"35","correct":true},{"answer":"81","correct":false},{"answer":"46","correct":false},{"answer":"116","correct":false}],"layout":"CLASSIC","image":"http://s3-eu-west-1.amazonaws.com/lecturequizuploads/5df0374d-6dc0-43d4-8d58-7a883eeb138b","imageMetadata":{"id":"5df0374d-6dc0-43d4-8d58-7a883eeb138b","resources":""},"resources":"","video":{"id":"","startTime":0,"endTime":0,"service":"youtube"},"questionFormat":0},{"type":"quiz","question":"What does the number 36 represent in this isotope notation?","time":20000,"points":true,"pointsMultiplier":1,"choices":[{"answer":"number of electrons","correct":false},{"answer":"number of neutrons","correct":false},{"answer":"atomic number","correct":true},{"answer":"none of the above","correct":false}],"layout":"CLASSIC","image":"http://s3-eu-west-1.amazonaws.com/lecturequizuploads/12fcf5b8-b9cb-4b75-aaac-46ee146e325b_opt","imageMetadata":{"id":"12fcf5b8-b9cb-4b75-aaac-46ee146e325b","resources":""},"resources":"","video":{"id":"","startTime":0,"endTime":0,"service":"youtube"},"questionFormat":0},{"type":"quiz","question":"What is the isotope notation for this isotope of sulfur?","time":30000,"points":true,"pointsMultiplier":1,"choices":[{"answer":"sulfur-16","correct":false},{"answer":"sulfur-6","correct":false},{"answer":"sulfur-36","correct":false},{"answer":"sulfur-32","correct":true}],"layout":"CLASSIC","image":"http://s3-eu-west-1.amazonaws.com/lecturequizuploads/a643c2b4-3855-480d-a0df-6449d224d120","imageMetadata":{"id":"a643c2b4-3855-480d-a0df-6449d224d120","resources":""},"resources":"","video":{"id":"","startTime":0,"endTime":0,"service":"youtube"},"questionFormat":0},{"type":"quiz","question":"What two subatomic particles contain almost all of the mass in an atom?","time":60000,"points":true,"pointsMultiplier":1,"choices":[{"answer":"Electrons and Neutrons","correct":false},{"answer":"Protons and Electrons","correct":false},{"answer":"Protons and Neutrons","correct":true}],"layout":"CLASSIC","image":"https://media.kahoot.it/f5ffa327-955e-496f-bcc2-8e0bfa12df15","imageMetadata":{"id":"f5ffa327-955e-496f-bcc2-8e0bfa12df15","contentType":"image/png","width":387,"height":288,"resources":""},"resources":"","video":{"startTime":0,"endTime":0,"service":"youtube","fullUrl":""},"questionFormat":0},{"type":"quiz","question":"What does the nucleus of an atom consist of?","time":30000,"points":true,"pointsMultiplier":1,"choices":[{"answer":"electrons","correct":false},{"answer":"neutrons","correct":false},{"answer":"protons","correct":false},{"answer":"protons and neutrons","correct":true}],"layout":"CLASSIC","image":"https://media.kahoot.it/ad69873b-0955-4212-8a02-53f9b231747a","imageMetadata":{"id":"ad69873b-0955-4212-8a02-53f9b231747a","resources":""},"resources":"","video":{"id":"","startTime":0,"endTime":0,"service":"youtube","fullUrl":""},"questionFormat":0},{"type":"quiz","question":"Which of these orbitals will an electron fill first?&nbsp;","time":20000,"points":true,"pointsMultiplier":1,"choices":[{"answer":"1s","correct":true},{"answer":"2s","correct":false},{"answer":"2p","correct":false},{"answer":"3s","correct":false}],"layout":"CLASSIC","image":"","resources":"","video":{"id":"","startTime":0,"endTime":0,"service":"youtube"},"questionFormat":0},{"type":"quiz","question":"What is an electron?","time":10000,"points":true,"pointsMultiplier":1,"choices":[{"answer":"a subatomic particle with no charge","correct":false},{"answer":" a negatively charged subatomic particle","correct":true},{"answer":"a positively charged subatomic particle","correct":false},{"answer":"an element","correct":false}],"layout":"CLASSIC","resources":"","video":{"startTime":0,"endTime":0,"service":"youtube","fullUrl":""},"questionFormat":0},{"type":"quiz","question":"What are electron orbitals/energy levels?","time":20000,"points":true,"pointsMultiplier":1,"choices":[{"answer":"The area where an&nbsp;electron&nbsp;is most likely to be found&nbsp;","correct":true},{"answer":"the basic unit of a chemical element.","correct":false},{"answer":"the space between the proton and neutron","correct":false},{"answer":"the small dense region consisting of protons and neutrons","correct":false}],"layout":"CLASSIC","resources":"","video":{"startTime":0,"endTime":0,"service":"youtube","fullUrl":""},"questionFormat":0},{"type":"quiz","question":"What answer properly identifies what is shown in the picture below?","time":30000,"points":true,"pointsMultiplier":1,"choices":[{"answer":"Na is an anion and Cl is a cation","correct":false},{"answer":"Na is a cation and Cl is an anion","correct":true},{"answer":"Na is neutral and Cl is anion","correct":false},{"answer":"Na is a cation and Cl is neutral","correct":false}],"layout":"CLASSIC","image":"https://media.kahoot.it/9dfdee40-e96a-4ecc-9993-c76c20bcc3ef","imageMetadata":{"id":"9dfdee40-e96a-4ecc-9993-c76c20bcc3ef","contentType":"image/png","width":758,"height":356,"resources":""},"resources":"","video":{"startTime":0,"endTime":0,"service":"youtube","fullUrl":""},"questionFormat":0},{"type":"quiz","question":"What is true about a NEUTRAL ATOM","time":20000,"points":true,"pointsMultiplier":1,"choices":[{"answer":"The protons are greater than the electrons","correct":false},{"answer":"The protons are equal to the neutrons","correct":false},{"answer":"The protons are less than the electrons ","correct":false},{"answer":"The protons are equal to the electrons","correct":true}],"layout":"CLASSIC","resources":"","video":{"startTime":0,"endTime":0,"service":"youtube","fullUrl":""},"questionFormat":0}],"answerMap":[4,4,4,2,2,2,2,4,4,4,2,2,4,4,2,4,4,4,4,4,4,4,4,4,4,4,3,4,4,4,4,4,4,4,4,4,3,4,4,4,4,4,4],"uuid":"6b6b6a86-7152-49e2-af4e-5d7ea80c51cc"}