{"author":"arcantu","questions":[{"type":"quiz","question":"The Modern&nbsp;Periodic Table is arranged in order of increasing...","time":20000,"points":true,"pointsMultiplier":1,"choices":[{"answer":"Atomic Number","correct":true},{"answer":"Atomic Mass","correct":false},{"answer":"Atomic Charge","correct":false},{"answer":"Atomic Size","correct":false}],"image":"http://s3-eu-west-1.amazonaws.com/lecturequizuploads/1555565f-3aeb-4c1a-9e75-ae81b260680c","imageMetadata":{"id":"1555565f-3aeb-4c1a-9e75-ae81b260680c","resources":""},"resources":"","video":{"id":"","startTime":0,"endTime":0,"service":"youtube","fullUrl":""},"questionFormat":0},{"type":"quiz","question":"Group 18 elements are called","time":20000,"points":true,"pointsMultiplier":1,"choices":[{"answer":"Noble Gases","correct":true},{"answer":"Nobel Gases","correct":false},{"answer":"Nobel Peace Prizes","correct":false},{"answer":"Noble Solids","correct":false}],"image":"http://s3-eu-west-1.amazonaws.com/lecturequizuploads/8528bed5-9769-4196-8a2a-969816814a3c_opt","imageMetadata":{"id":"8528bed5-9769-4196-8a2a-969816814a3c","resources":""},"resources":"","video":{"id":"","startTime":0,"endTime":0,"service":"youtube","fullUrl":""},"questionFormat":0},{"type":"quiz","question":"All of the following are metals <b><i>EXCEPT</i></b>","time":20000,"points":true,"pointsMultiplier":1,"choices":[{"answer":"Ag","correct":false},{"answer":"Au","correct":false},{"answer":"Ar","correct":true},{"answer":"Ac","correct":false}],"image":"http://s3-eu-west-1.amazonaws.com/lecturequizuploads/d6176b47-d8dd-46db-84e2-ed9ceeae9b44","imageMetadata":{"id":"d6176b47-d8dd-46db-84e2-ed9ceeae9b44","resources":""},"resources":"","video":{"id":"","startTime":0,"endTime":0,"service":"youtube","fullUrl":""},"questionFormat":0},{"type":"quiz","question":"Which is a element is a<b>&nbsp;nonmetals</b>?","time":20000,"points":true,"pointsMultiplier":1,"choices":[{"answer":"Copper ","correct":false},{"answer":"Potasstium ","correct":false},{"answer":"Lithium ","correct":false},{"answer":"Oxygen","correct":true}],"image":"http://s3-eu-west-1.amazonaws.com/lecturequizuploads/1a399497-c6c6-4914-86a7-7d514564cc5a_opt","imageMetadata":{"id":"1a399497-c6c6-4914-86a7-7d514564cc5a","crop":{"origin":{"x":0,"y":0},"target":{"x":378,"y":252}},"resources":""},"resources":"","video":{"id":"","startTime":0,"endTime":0,"service":"youtube","fullUrl":""},"questionFormat":0},{"type":"quiz","question":"What element is Period 5?","time":20000,"points":true,"pointsMultiplier":1,"choices":[{"answer":"S","correct":false},{"answer":"Ra","correct":false},{"answer":"Be","correct":false},{"answer":"Mo","correct":true}],"image":"http://s3-eu-west-1.amazonaws.com/lecturequizuploads/20794f9e-5635-406b-8d20-b3c4d045bb8a_opt","imageMetadata":{"id":"20794f9e-5635-406b-8d20-b3c4d045bb8a","resources":""},"resources":"","video":{"id":"","startTime":0,"endTime":0,"service":"youtube","fullUrl":""},"questionFormat":0},{"type":"quiz","question":"The metals of group 1 of the periodic table are called the","time":20000,"points":true,"pointsMultiplier":1,"choices":[{"answer":"Alkaline Earth Metals","correct":false},{"answer":"Alkaline Mars Metals","correct":false},{"answer":"Alkali Metals","correct":true},{"answer":"Alkali Nonmetals","correct":false}],"image":"http://s3-eu-west-1.amazonaws.com/lecturequizuploads/e85ed1bd-d703-4577-adeb-a2adc7a8e8f1_opt","imageMetadata":{"id":"e85ed1bd-d703-4577-adeb-a2adc7a8e8f1","resources":""},"resources":"","video":{"id":"","startTime":0,"endTime":0,"service":"youtube","fullUrl":""},"questionFormat":0},{"type":"quiz","question":"Elements along the staircase of the Periodic Table are known as","time":20000,"points":true,"pointsMultiplier":1,"choices":[{"answer":"Metalloids","correct":true},{"answer":"Semi-metals","correct":true},{"answer":"Poor metals","correct":false},{"answer":"Other nonmetals","correct":false}],"image":"http://s3-eu-west-1.amazonaws.com/lecturequizuploads/69b8a1ef-d9b9-4abb-8c90-2c00862fbcec_opt","imageMetadata":{"id":"69b8a1ef-d9b9-4abb-8c90-2c00862fbcec","resources":""},"resources":"","video":{"id":"","startTime":0,"endTime":0,"service":"youtube","fullUrl":""},"questionFormat":0},{"type":"quiz","question":"Group 17 elements are know as the&nbsp;","time":20000,"points":true,"pointsMultiplier":1,"choices":[{"answer":"Hall of Gems","correct":false},{"answer":"Hail of Gins","correct":false},{"answer":"Halogens","correct":true},{"answer":"Hole in Bins","correct":false}],"image":"http://s3-eu-west-1.amazonaws.com/lecturequizuploads/7d86df09-8f6e-490f-86ac-584637dbb211_opt","imageMetadata":{"id":"7d86df09-8f6e-490f-86ac-584637dbb211","resources":""},"resources":"","video":{"id":"","startTime":0,"endTime":0,"service":"youtube","fullUrl":""},"questionFormat":0},{"type":"quiz","question":"This group is sometimes called Group B. The def.-elements characterized by addition of electrons to the D suborbital.","time":20000,"points":true,"pointsMultiplier":1,"choices":[{"answer":"Alkali Metals","correct":false},{"answer":"Transition Metals","correct":true},{"answer":"Alkaline Earth Metals","correct":false},{"answer":"Halogens","correct":false}],"image":"http://s3-eu-west-1.amazonaws.com/lecturequizuploads/beec344f-21fa-45d5-9f37-5af0c2c67ab8_opt","imageMetadata":{"id":"beec344f-21fa-45d5-9f37-5af0c2c67ab8","resources":""},"resources":"","video":{"id":"","startTime":0,"endTime":0,"service":"youtube","fullUrl":""},"questionFormat":0},{"type":"quiz","question":"The second row at the bottom of the periodic table, elements 89-103 are known as the","time":20000,"points":true,"pointsMultiplier":1,"choices":[{"answer":"Actinides","correct":true},{"answer":"Lanthanides","correct":false},{"answer":"Noble Gases","correct":false},{"answer":"Halogens","correct":false}],"image":"http://s3-eu-west-1.amazonaws.com/lecturequizuploads/778f7c81-03e7-48f1-949b-ac8033388bea_opt","imageMetadata":{"id":"778f7c81-03e7-48f1-949b-ac8033388bea","resources":""},"resources":"","video":{"id":"","startTime":0,"endTime":0,"service":"youtube","fullUrl":""},"questionFormat":0},{"type":"quiz","question":"What is periodic law?","time":20000,"points":true,"pointsMultiplier":1,"choices":[{"answer":"repetition of physical &amp; chemical properties; regular and repeating ","correct":true},{"answer":" halogens ","correct":false},{"answer":"metals ","correct":false},{"answer":"Mendeleeve","correct":false}],"image":"https://media.kahoot.it/94d51fed-daa5-4ff8-b120-551389c0ec37","imageMetadata":{"id":"94d51fed-daa5-4ff8-b120-551389c0ec37","contentType":"image/png","width":1920,"height":1080,"resources":""},"resources":"","video":{"startTime":0,"endTime":0,"service":"youtube","fullUrl":""},"questionFormat":0},{"type":"quiz","question":"Which element is a Noble gas?","time":20000,"points":true,"pointsMultiplier":1,"choices":[{"answer":"Iron","correct":false},{"answer":"Oxygen","correct":false},{"answer":"Iodine","correct":false},{"answer":"Xenon","correct":true}],"image":"http://s3-eu-west-1.amazonaws.com/lecturequizuploads/e5ef357b-0478-4846-9889-1f3b1efac3b3_opt","imageMetadata":{"id":"e5ef357b-0478-4846-9889-1f3b1efac3b3","resources":""},"resources":"","video":{"id":"","startTime":0,"endTime":0,"service":"youtube","fullUrl":""},"questionFormat":0},{"type":"quiz","question":"Which element is not a metalloid?","time":20000,"points":true,"pointsMultiplier":1,"choices":[{"answer":"Ga","correct":true},{"answer":"Si","correct":false},{"answer":"B","correct":false},{"answer":"Sb","correct":false}],"image":"http://s3-eu-west-1.amazonaws.com/lecturequizuploads/4c7b2f4f-86e3-47e1-afed-a98072d03b0f_opt","imageMetadata":{"id":"4c7b2f4f-86e3-47e1-afed-a98072d03b0f","resources":""},"resources":"","video":{"id":"","startTime":0,"endTime":0,"service":"youtube","fullUrl":""},"questionFormat":0},{"type":"quiz","question":"Who is considered the \"Father of the Modern Periodic Table?\"","time":20000,"points":true,"pointsMultiplier":1,"choices":[{"answer":"Lothar Meyer","correct":false},{"answer":"John Newlands","correct":false},{"answer":"Antoine Lavosier","correct":false},{"answer":"Dimitri Mendeleev","correct":true}],"image":"http://s3-eu-west-1.amazonaws.com/lecturequizuploads/c063049b-a872-40bf-8496-360c0dd1d7f5_opt","imageMetadata":{"id":"c063049b-a872-40bf-8496-360c0dd1d7f5","resources":""},"resources":"","video":{"id":"","startTime":0,"endTime":0,"service":"youtube","fullUrl":""},"questionFormat":0},{"type":"quiz","question":"Which Alkali Metal has the highest ionization energy?","time":20000,"points":true,"pointsMultiplier":1,"choices":[{"answer":"Lithium","correct":true},{"answer":"Sodium","correct":false},{"answer":"Potassium","correct":false},{"answer":"Rubidium","correct":false}],"image":"http://s3-eu-west-1.amazonaws.com/lecturequizuploads/e755f1f0-9655-4b97-bd79-5180166922e9_opt","imageMetadata":{"id":"e755f1f0-9655-4b97-bd79-5180166922e9","resources":""},"resources":"","video":{"id":"","startTime":0,"endTime":0,"service":"youtube","fullUrl":""},"questionFormat":0},{"type":"quiz","question":"Electronegativity ____________across a period with increasing atomic number.&nbsp;","time":20000,"points":true,"pointsMultiplier":1,"choices":[{"answer":"decreases ","correct":false},{"answer":"stays constant","correct":false},{"answer":"increases ","correct":true},{"answer":"increases, then decreases","correct":false}],"image":"http://s3-eu-west-1.amazonaws.com/lecturequizuploads/02123233-307c-4309-8aba-564ace28855f_opt","imageMetadata":{"id":"02123233-307c-4309-8aba-564ace28855f","resources":""},"resources":"","video":{"id":"","startTime":0,"endTime":0,"service":"youtube","fullUrl":""},"questionFormat":0},{"type":"quiz","question":"What does the period number correspond to? ","time":20000,"points":true,"pointsMultiplier":1,"choices":[{"answer":"Energy Levels","correct":true},{"answer":"Fewer Principle Energy sublevels","correct":false},{"answer":"atomic radius","correct":false},{"answer":"Smaller Nuclear Charge","correct":false}],"image":"http://s3-eu-west-1.amazonaws.com/lecturequizuploads/83e303a9-20da-4063-a723-7ab4066bc2ae_opt","imageMetadata":{"id":"83e303a9-20da-4063-a723-7ab4066bc2ae","resources":""},"resources":"","video":{"id":"","startTime":0,"endTime":0,"service":"youtube","fullUrl":""},"questionFormat":0},{"type":"quiz","question":"Groups of the Periodic table are","time":20000,"points":true,"pointsMultiplier":1,"choices":[{"answer":"the horizontal rows.","correct":false},{"answer":"the vertical columns.","correct":true}],"image":"http://s3-eu-west-1.amazonaws.com/lecturequizuploads/f6174b16-a945-40f1-83c3-931bc9f1c97a","imageMetadata":{"id":"f6174b16-a945-40f1-83c3-931bc9f1c97a","resources":""},"resources":"","video":{"id":"","startTime":0,"endTime":0,"service":"youtube","fullUrl":""},"questionFormat":0},{"type":"quiz","question":"Periods of the Periodic table are","time":20000,"points":true,"pointsMultiplier":1,"choices":[{"answer":"the horizontal rows.","correct":true},{"answer":"the vertical columns.","correct":false}],"image":"http://s3-eu-west-1.amazonaws.com/lecturequizuploads/2f8b40d6-105d-487b-867e-0edec207fa0e","imageMetadata":{"id":"2f8b40d6-105d-487b-867e-0edec207fa0e","resources":""},"resources":"","video":{"id":"","startTime":0,"endTime":0,"service":"youtube","fullUrl":""},"questionFormat":0},{"type":"quiz","question":"Group A element on the periodic table; together these elements have only partially filled outer most s and p sublevel is","time":20000,"points":true,"pointsMultiplier":1,"choices":[{"answer":"periodic law ","correct":false},{"answer":"group","correct":false},{"answer":"representative elements ","correct":true},{"answer":"row","correct":false}],"image":"http://s3-eu-west-1.amazonaws.com/lecturequizuploads/0354dd1a-5635-4a14-a4b7-e2fba3786e56","imageMetadata":{"id":"0354dd1a-5635-4a14-a4b7-e2fba3786e56","resources":""},"resources":"","video":{"id":"","startTime":0,"endTime":0,"service":"youtube","fullUrl":""},"questionFormat":0},{"type":"quiz","question":"What is the trend for atomic radius down a group?","time":20000,"points":true,"pointsMultiplier":1,"choices":[{"answer":"decreases","correct":false},{"answer":"varies ","correct":false},{"answer":"increases","correct":true},{"answer":"increases and decreases ","correct":false}],"image":"http://s3-eu-west-1.amazonaws.com/lecturequizuploads/b127db21-cd0b-49df-ace3-6b175bb3a5ca","imageMetadata":{"id":"b127db21-cd0b-49df-ace3-6b175bb3a5ca","resources":""},"resources":"","video":{"id":"","startTime":0,"endTime":0,"service":"youtube","fullUrl":""},"questionFormat":0},{"type":"quiz","question":"What element has the largest atomic radius? ","time":20000,"points":true,"pointsMultiplier":1,"choices":[{"answer":"Helium ","correct":false},{"answer":"Nitrogen ","correct":false},{"answer":"Francium ","correct":true},{"answer":"Hydrogen ","correct":false}],"image":"https://media.kahoot.it/b11fc25e-6220-4ae1-907c-e85c60908132","imageMetadata":{"id":"b11fc25e-6220-4ae1-907c-e85c60908132","contentType":"image/png","width":1920,"height":1080,"resources":""},"resources":"","video":{"startTime":0,"endTime":0,"service":"youtube","fullUrl":""},"questionFormat":0},{"type":"quiz","question":"What happens to atomic radius as we move across a period? ","time":20000,"points":true,"pointsMultiplier":1,"choices":[{"answer":"decreases ","correct":false},{"answer":"stays constant","correct":false},{"answer":"varies ","correct":false},{"answer":"increases","correct":true}],"image":"http://s3-eu-west-1.amazonaws.com/lecturequizuploads/14e0f705-aa5b-4e7f-8ef7-b015029c7f18_opt","imageMetadata":{"id":"14e0f705-aa5b-4e7f-8ef7-b015029c7f18","resources":""},"resources":"","video":{"id":"","startTime":0,"endTime":0,"service":"youtube","fullUrl":""},"questionFormat":0},{"type":"quiz","question":"What is the name of group 2?","time":20000,"points":true,"pointsMultiplier":1,"choices":[{"answer":"Alkali Metals","correct":false},{"answer":"Alkaline Earth Metals","correct":true},{"answer":"Halogens","correct":false},{"answer":"Noble Gases","correct":false}],"image":"http://s3-eu-west-1.amazonaws.com/lecturequizuploads/c20c1c2f-d43b-4aa4-a561-f1fa02586eda","imageMetadata":{"id":"c20c1c2f-d43b-4aa4-a561-f1fa02586eda","resources":""},"resources":"","video":{"id":"","startTime":0,"endTime":0,"service":"youtube","fullUrl":""},"questionFormat":0},{"type":"quiz","question":"The energy required to remove the electron from a gaseous atom is called__________?","time":20000,"points":true,"pointsMultiplier":1,"choices":[{"answer":"electronegativity ","correct":false},{"answer":"electron","correct":false},{"answer":"atomic radius","correct":false},{"answer":"ionization energy","correct":true}],"image":"http://s3-eu-west-1.amazonaws.com/lecturequizuploads/516c6955-0b0c-4e8e-ad3e-894967602cd8_opt","imageMetadata":{"id":"516c6955-0b0c-4e8e-ad3e-894967602cd8","resources":""},"resources":"","video":{"id":"","startTime":0,"endTime":0,"service":"youtube","fullUrl":""},"questionFormat":0},{"type":"quiz","question":"The tendency for an atom to attract electrons to itself when it is chemically combined with another element is called __","time":20000,"points":true,"pointsMultiplier":1,"choices":[{"answer":"electronegativity ","correct":true},{"answer":"electrons","correct":false},{"answer":"atomic radius ","correct":false},{"answer":"ionization energy","correct":false}],"image":"http://s3-eu-west-1.amazonaws.com/lecturequizuploads/b1ed27a2-2fa7-471e-8c6d-166c73abe4d1_opt","imageMetadata":{"id":"b1ed27a2-2fa7-471e-8c6d-166c73abe4d1","resources":""},"resources":"","video":{"id":"","startTime":0,"endTime":0,"service":"youtube","fullUrl":""},"questionFormat":0},{"type":"quiz","question":"The Noble Gases or group 18 are gaseous elements, and ........","time":20000,"points":true,"pointsMultiplier":1,"choices":[{"answer":" are unreactive.","correct":true},{"answer":"have a 1 valence electron.","correct":false},{"answer":"are reactive ","correct":false},{"answer":"metals","correct":false}],"image":"http://s3-eu-west-1.amazonaws.com/lecturequizuploads/59846736-14f7-44f3-9faa-63926b84069f","imageMetadata":{"id":"59846736-14f7-44f3-9faa-63926b84069f","resources":""},"resources":"","video":{"id":"","startTime":0,"endTime":0,"service":"youtube","fullUrl":""},"questionFormat":0},{"type":"quiz","question":"What happens to electronegativity as you proceed down group?","time":20000,"points":true,"pointsMultiplier":1,"choices":[{"answer":"Increase","correct":false},{"answer":"Decreases","correct":true},{"answer":"Remains the same","correct":false}],"image":"https://media.kahoot.it/c92fd58e-4aeb-4f8b-b9e3-6a0845a39250","imageMetadata":{"id":"c92fd58e-4aeb-4f8b-b9e3-6a0845a39250","altText":"Accurate illustration of the Periodic Table.","contentType":"image/jpeg","origin":"Getty Images","externalRef":"82020791","width":2500,"height":1863,"resources":"Joachim Angeltun/Photodisc/Getty Images"},"resources":"Joachim Angeltun/Photodisc/Getty Images","video":{"startTime":0,"endTime":0,"service":"youtube","fullUrl":""},"questionFormat":0},{"type":"quiz","question":"What happens to electronegativity as you proceed from left to right across a period?","time":20000,"points":true,"pointsMultiplier":1,"choices":[{"answer":"Increases","correct":true},{"answer":"Decreases","correct":false},{"answer":"Remains the same","correct":false},{"answer":"varies","correct":false}],"image":"http://s3-eu-west-1.amazonaws.com/lecturequizuploads/bf07a780-64d0-43c6-be4f-9316be8ddf67_opt","imageMetadata":{"id":"bf07a780-64d0-43c6-be4f-9316be8ddf67","resources":""},"resources":"","video":{"id":"","startTime":0,"endTime":0,"service":"youtube","fullUrl":""},"questionFormat":0},{"type":"quiz","question":"The vast majority of the elements on the Periodic Table are what type?","time":20000,"points":true,"pointsMultiplier":1,"choices":[{"answer":"Metals","correct":true},{"answer":"Nonmetals","correct":false},{"answer":"Metalliods","correct":false},{"answer":"Semi-metals","correct":false}],"image":"http://s3-eu-west-1.amazonaws.com/lecturequizuploads/b130a0a6-b18d-41f2-9c76-448cbc2c18f4_opt","imageMetadata":{"id":"b130a0a6-b18d-41f2-9c76-448cbc2c18f4","resources":""},"resources":"","video":{"id":"","startTime":0,"endTime":0,"service":"youtube","fullUrl":""},"questionFormat":0},{"type":"quiz","question":"What element on the periodic table has the highest electronegativity? ","time":20000,"points":true,"pointsMultiplier":1,"choices":[{"answer":"Francium","correct":false},{"answer":"Fluorine ","correct":true},{"answer":"Carbon ","correct":false},{"answer":"Nitrogen ","correct":false}],"layout":"CLASSIC","image":"https://media.kahoot.it/3f82f9ed-adeb-4c01-a1cc-e73e71e65416","imageMetadata":{"id":"3f82f9ed-adeb-4c01-a1cc-e73e71e65416","contentType":"image/png","width":1920,"height":1080,"resources":""},"resources":"","video":{"startTime":0,"endTime":0,"service":"youtube","fullUrl":""},"questionFormat":0},{"type":"quiz","question":"What is the most reactive element on the periodic table? ","time":20000,"points":true,"pointsMultiplier":1,"choices":[{"answer":"Lithium ","correct":false},{"answer":"Chlorine ","correct":false},{"answer":"Francium ","correct":true},{"answer":"Oxygen ","correct":false}],"layout":"CLASSIC","image":"https://media.kahoot.it/0a4b21bd-8f99-48aa-b332-0920447702e8","imageMetadata":{"id":"0a4b21bd-8f99-48aa-b332-0920447702e8","contentType":"image/png","width":1920,"height":1080,"resources":""},"resources":"","video":{"startTime":0,"endTime":0,"service":"youtube","fullUrl":""},"questionFormat":0},{"type":"quiz","question":"How was the first periodic table organized? ","time":20000,"points":true,"pointsMultiplier":1,"choices":[{"answer":"atomic mass ","correct":true},{"answer":"atomic number ","correct":false},{"answer":"neutrons ","correct":false},{"answer":" valence electrons ","correct":false}],"layout":"CLASSIC","image":"https://media.kahoot.it/e1d806d0-3686-42f6-9c7f-0789726ef885","imageMetadata":{"id":"e1d806d0-3686-42f6-9c7f-0789726ef885","contentType":"image/png","width":1920,"height":1080,"resources":""},"resources":"","video":{"startTime":0,"endTime":0,"service":"youtube","fullUrl":""},"questionFormat":0},{"type":"quiz","question":"One-half the distance between the nuclei in a molecule consisting of identical atoms is called the ","time":20000,"points":true,"pointsMultiplier":1,"choices":[{"answer":"electronegativity ","correct":false},{"answer":"periodic law","correct":false},{"answer":"atomic radius ","correct":true},{"answer":"ionization energy ","correct":false}],"layout":"CLASSIC","image":"https://media.kahoot.it/cb5d6704-a9fe-4f7f-9eba-ae1385cd9ba5","imageMetadata":{"id":"cb5d6704-a9fe-4f7f-9eba-ae1385cd9ba5","contentType":"image/png","width":1024,"height":683,"resources":""},"resources":"","video":{"startTime":0,"endTime":0,"service":"youtube","fullUrl":""},"questionFormat":0},{"type":"quiz","question":"what type of information is on a periodic table? ","time":20000,"points":true,"pointsMultiplier":1,"choices":[{"answer":"atomic number, element name, element symbol","correct":true},{"answer":"number of electrons, protons, and neutrons","correct":false},{"answer":"state of matter, family name, atomic mass ","correct":false},{"answer":"nothing really ","correct":false}],"layout":"CLASSIC","image":"https://media.kahoot.it/55d93374-af1e-43df-9926-dc72ef8f70b3","imageMetadata":{"id":"55d93374-af1e-43df-9926-dc72ef8f70b3","contentType":"image/png","width":1920,"height":1080,"resources":""},"resources":"","video":{"startTime":0,"endTime":0,"service":"youtube","fullUrl":""},"questionFormat":0},{"type":"quiz","question":"What elements are most closely related, a group or a period? ","time":20000,"points":true,"pointsMultiplier":1,"choices":[{"answer":"group ","correct":true},{"answer":"number of electrons ","correct":false},{"answer":"period","correct":false}],"layout":"CLASSIC","image":"https://media.kahoot.it/beba3cc7-b4dc-42ef-9eeb-356623add34d","imageMetadata":{"id":"beba3cc7-b4dc-42ef-9eeb-356623add34d","contentType":"image/png","width":826,"height":580,"resources":""},"resources":"","video":{"startTime":0,"endTime":0,"service":"youtube","fullUrl":""},"questionFormat":0}],"answerMap":[4,4,4,4,4,4,4,4,4,4,4,4,4,4,4,4,4,2,2,4,4,4,4,4,4,4,4,3,4,4,4,4,4,4,4,3],"uuid":"88f992a6-9a0f-426c-b8a1-6c5646a4f655"}