{"author":"OlinskeTS","questions":[{"type":"quiz","question":"How do you figure out the number of neutrons in an atom by using the periodic table?","time":20000,"points":true,"pointsMultiplier":1,"choices":[{"answer":"Mass Number + Atomic Number","correct":false},{"answer":"Mass Number / Atomic Number","correct":false},{"answer":"Mass Number - Atomic Number","correct":true},{"answer":"Atomic Number ","correct":false}],"layout":"CLASSIC","resources":"","video":{"startTime":0,"endTime":0,"service":"youtube","fullUrl":""},"questionFormat":0},{"type":"quiz","question":"Who created the periodic table of elements?","time":20000,"points":true,"pointsMultiplier":1,"choices":[{"answer":"Dmitri Mendeleev","correct":true},{"answer":"Albert Einstein","correct":false},{"answer":"Bill Nye","correct":false},{"answer":"Marie Curie","correct":false}],"layout":"CLASSIC","resources":"","video":{"startTime":0,"endTime":0,"service":"youtube","fullUrl":""},"questionFormat":0},{"type":"quiz","question":"What happens at an element's melting point?","time":20000,"points":true,"pointsMultiplier":1,"choices":[{"answer":"Changes from liquid to solid","correct":false},{"answer":"Changes from liquid to gas","correct":false},{"answer":"Changes from solid to liquid","correct":true},{"answer":"Changes from gas to solid","correct":false}],"layout":"CLASSIC","resources":"","video":{"startTime":0,"endTime":0,"service":"youtube","fullUrl":""},"questionFormat":0},{"type":"quiz","question":"The Noble Gases in this image represent what category on the periodic table?","time":20000,"points":true,"pointsMultiplier":1,"choices":[{"answer":"A Period","correct":false},{"answer":"A Group","correct":true},{"answer":"Metals","correct":false},{"answer":"Metalloids","correct":false}],"layout":"CLASSIC","image":"https://media.kahoot.it/7bd67d78-96d0-45f7-9bb4-49bcdd6b5804","imageMetadata":{"id":"7bd67d78-96d0-45f7-9bb4-49bcdd6b5804","contentType":"image/png","width":317,"height":159,"resources":""},"resources":"","video":{"startTime":0,"endTime":0,"service":"youtube","fullUrl":""},"questionFormat":0},{"type":"quiz","question":"What is the formula for density?","time":20000,"points":true,"pointsMultiplier":1,"choices":[{"answer":"Density = Mass/Volume","correct":true},{"answer":"Density = Mass - Volume","correct":false},{"answer":"Density = Mass + Volume","correct":false},{"answer":"Density = Mass X Volume","correct":false}],"layout":"CLASSIC","resources":"","video":{"startTime":0,"endTime":0,"service":"youtube","fullUrl":""},"questionFormat":0},{"type":"quiz","question":"Where are protons found in an atom?","time":20000,"points":true,"pointsMultiplier":1,"choices":[{"answer":"Nucleus","correct":true},{"answer":"Cloud surrounding nucleus","correct":false},{"answer":"They are not in an atom","correct":false},{"answer":":)","correct":false}],"layout":"CLASSIC","resources":"","video":{"startTime":0,"endTime":0,"service":"youtube","fullUrl":""},"questionFormat":0},{"type":"quiz","question":"How many protons are found in an atom of Argon?","time":20000,"points":true,"pointsMultiplier":1,"choices":[{"answer":"18","correct":true},{"answer":"22","correct":false},{"answer":"40","correct":false},{"answer":"it depends","correct":false}],"layout":"CLASSIC","image":"https://media.kahoot.it/3f0dea6c-04f8-4c49-bad3-6b2e2b5ec863","imageMetadata":{"id":"3f0dea6c-04f8-4c49-bad3-6b2e2b5ec863","contentType":"image/jpeg","width":1000,"height":1080,"resources":""},"resources":"","video":{"startTime":0,"endTime":0,"service":"youtube","fullUrl":""},"questionFormat":0},{"type":"quiz","question":"How many electrons are found in an atom of Argon?","time":20000,"points":true,"pointsMultiplier":1,"choices":[{"answer":"40","correct":false},{"answer":"22","correct":false},{"answer":"18","correct":true},{"answer":"0","correct":false}],"layout":"CLASSIC","image":"https://media.kahoot.it/a2abfa7d-47d9-4ac6-8c25-639c649f2952","imageMetadata":{"id":"a2abfa7d-47d9-4ac6-8c25-639c649f2952","contentType":"image/jpeg","width":1000,"height":1080,"resources":""},"resources":"","video":{"startTime":0,"endTime":0,"service":"youtube","fullUrl":""},"questionFormat":0},{"type":"quiz","question":"How many neutrons are found in an atom of Argon?","time":20000,"points":true,"pointsMultiplier":1,"choices":[{"answer":"18","correct":false},{"answer":"40","correct":false},{"answer":"22","correct":true},{"answer":"100","correct":false}],"layout":"CLASSIC","image":"https://media.kahoot.it/3c9af086-eefe-4691-bd1e-ae0a50ecfd7d","imageMetadata":{"id":"3c9af086-eefe-4691-bd1e-ae0a50ecfd7d","contentType":"image/jpeg","width":1000,"height":1080,"resources":""},"resources":"","video":{"startTime":0,"endTime":0,"service":"youtube","fullUrl":""},"questionFormat":0},{"type":"quiz","question":"What element has the symbol Fe?","time":20000,"points":true,"pointsMultiplier":1,"choices":[{"answer":"Ir","correct":false},{"answer":"I","correct":false},{"answer":"Fe","correct":true},{"answer":"Hg","correct":false}],"layout":"CLASSIC","resources":"","video":{"startTime":0,"endTime":0,"service":"youtube","fullUrl":""},"questionFormat":0}],"answerMap":[4,4,4,4,4,4,4,4,4,4],"uuid":"8d7c7b7d-330b-4ebb-a63e-9e9d7b44e4d6"}