{"questions":[{"choices":[{"correct":false,"answer":"the number of nuclei"},{"answer":"the number of electrons","correct":true},{"answer":"the number of ions","correct":false},{"answer":"the number of neutrons","correct":false}],"type":"quiz","questionFormat":0,"image":"https://media.kahoot.it/9b5b8aec-f82c-4625-969f-04de45989c9a","resources":"","time":20000,"imageMetadata":{"resources":"","id":"9b5b8aec-f82c-4625-969f-04de45989c9a"},"video":{"endTime":0,"fullUrl":"","service":"youtube","id":"","startTime":0},"pointsMultiplier":1,"question":"What is the number of protons in a neutral atom equal to?","points":true},{"time":20000,"question":"Which particle in an atom can be found outside the nucleus?","video":{"id":"","service":"youtube","endTime":0,"startTime":0,"fullUrl":""},"resources":"","questionFormat":0,"imageMetadata":{"id":"a78529bd-5728-49b5-b8f2-a68f02e5c244","resources":""},"points":true,"image":"https://media.kahoot.it/a78529bd-5728-49b5-b8f2-a68f02e5c244","pointsMultiplier":1,"choices":[{"answer":"atomic mass unit","correct":false},{"correct":true,"answer":"electron"},{"answer":"proton","correct":false},{"correct":false,"answer":"neutron"}],"type":"quiz"},{"choices":[{"correct":false,"answer":"the mass of its nucleus"},{"answer":"the number of electrons around its nucleus","correct":false},{"correct":true,"answer":"the number of protons in its nucleus"},{"correct":false,"answer":"the number of neutrons in its nucleus"}],"type":"quiz","question":"What is the atomic number of an element based on?","video":{"fullUrl":"","endTime":0,"service":"youtube","id":"","startTime":0},"image":"https://media.kahoot.it/846d1c05-6213-485d-9c82-ba5acb5d663b_opt","points":true,"resources":"","questionFormat":0,"pointsMultiplier":1,"time":20000,"imageMetadata":{"resources":"","id":"846d1c05-6213-485d-9c82-ba5acb5d663b"}},{"image":"https://media.kahoot.it/53608804-66b6-46a5-a342-d134f3c6eca9_opt","points":true,"question":"Which of the following is a molecule (compound)?","questionFormat":0,"type":"quiz","pointsMultiplier":1,"time":20000,"choices":[{"correct":true,"answer":"Carbon Monoxide (CO)"},{"correct":false,"answer":"Gold (Au)"},{"answer":"Helium (He)","correct":false},{"answer":"Aluminum (Al)","correct":false}],"video":{"id":"","fullUrl":"","endTime":0,"startTime":0,"service":"youtube"},"resources":"","imageMetadata":{"id":"53608804-66b6-46a5-a342-d134f3c6eca9","resources":""}},{"type":"quiz","time":20000,"resources":"","question":"The number of neutrons is the","image":"https://media.kahoot.it/c715aed7-3262-47e6-b0bc-4160fdeaaabe","points":true,"choices":[{"correct":true,"answer":"atomic mass minus the atomic number"},{"correct":false,"answer":"atomic number minus the atomic mass"},{"answer":"proton number minus the electron number","correct":false},{"correct":false,"answer":"atomic mass plus the atomic number"}],"questionFormat":0,"video":{"service":"youtube","id":"","endTime":0,"startTime":0,"fullUrl":""},"imageMetadata":{"id":"c715aed7-3262-47e6-b0bc-4160fdeaaabe","resources":""},"pointsMultiplier":1},{"time":20000,"type":"quiz","image":"https://media.kahoot.it/aef617ef-c838-4bcf-b35e-a6415d8b1b12_opt","pointsMultiplier":1,"resources":"","question":"Elements in the Periodic table are currently arranged by which characteristics?","imageMetadata":{"id":"aef617ef-c838-4bcf-b35e-a6415d8b1b12","resources":""},"choices":[{"answer":"reactivity and ductility","correct":false},{"correct":false,"answer":"density and mass"},{"correct":true,"answer":"atomic number and reactivity"},{"correct":false,"answer":"melting point and freezing point"}],"points":true,"questionFormat":0,"video":{"id":"","endTime":0,"fullUrl":"","startTime":0,"service":"youtube"}},{"points":true,"question":"Which statement about the columns of the periodic table is true?","type":"quiz","time":20000,"resources":"","questionFormat":0,"image":"https://media.kahoot.it/e44bed6c-c6da-46d3-b673-8b8e37ae41a3_opt","imageMetadata":{"resources":"","id":"e44bed6c-c6da-46d3-b673-8b8e37ae41a3"},"choices":[{"answer":"elements have similar chemical properties","correct":true},{"answer":"elements have the same density","correct":false},{"answer":"elements have the same atomic number","correct":false},{"answer":"elements have the same atomic mass","correct":false}],"pointsMultiplier":1,"video":{"id":"","service":"youtube","endTime":0,"startTime":0,"fullUrl":""}},{"resources":"","imageMetadata":{"resources":"","id":"7b4550e2-91a8-44a9-8056-6692f456fe50"},"questionFormat":0,"question":"Which category of the periodic table contains the most elements?","choices":[{"correct":false,"answer":"metalloids"},{"answer":"nonmetals","correct":false},{"correct":true,"answer":"metals"},{"correct":false,"answer":"transition elements"}],"time":20000,"type":"quiz","points":true,"image":"https://media.kahoot.it/7b4550e2-91a8-44a9-8056-6692f456fe50","pointsMultiplier":1,"video":{"startTime":0,"endTime":0,"fullUrl":"","id":"","service":"youtube"}},{"image":"https://media.kahoot.it/5ae2497d-e6ae-4d29-b1ac-b53bafa1e50f_opt","video":{"endTime":0,"service":"youtube","fullUrl":"","startTime":0,"id":""},"time":30000,"choices":[{"answer":"2,8,14,8","correct":false},{"correct":false,"answer":"2,8,8"},{"correct":false,"answer":"2,14"},{"answer":"2,8,6","correct":true}],"pointsMultiplier":1,"questionFormat":0,"points":true,"resources":"","type":"quiz","question":"Which is the correct electron shell configuration for Sulfur?","imageMetadata":{"id":"5ae2497d-e6ae-4d29-b1ac-b53bafa1e50f","resources":""}},{"imageMetadata":{"resources":"","id":"2dd86728-3ed5-4f14-a649-f44190ffd848"},"video":{"startTime":0,"id":"","endTime":0,"fullUrl":"","service":"youtube"},"choices":[{"answer":"Silicone (Si)","correct":false},{"correct":false,"answer":"Sodium (Na)"},{"answer":"Chlorine (Cl)","correct":false},{"answer":"Magnesium (Mg)","correct":true}],"type":"quiz","questionFormat":0,"time":30000,"points":true,"image":"https://media.kahoot.it/2dd86728-3ed5-4f14-a649-f44190ffd848_opt","resources":"","pointsMultiplier":1,"question":"This is an example of what atom?"},{"resources":"","questionFormat":0,"type":"quiz","pointsMultiplier":1,"image":"https://media.kahoot.it/557d9436-55aa-4d80-9315-fe79534d8975_opt","question":"Rows on the periodic table are called","video":{"service":"youtube","startTime":0,"id":"","endTime":0,"fullUrl":""},"choices":[{"answer":"lanthanides","correct":false},{"correct":false,"answer":"elements"},{"answer":"groups","correct":false},{"correct":true,"answer":"periods"}],"imageMetadata":{"id":"557d9436-55aa-4d80-9315-fe79534d8975","resources":""},"time":20000,"points":true},{"question":"Elements that act like both metals and nonmetals are called","choices":[{"answer":"transition metals","correct":false},{"correct":true,"answer":"metalloids"},{"correct":false,"answer":"lanthanides"},{"answer":"alkali metals","correct":false}],"imageMetadata":{"resources":"","id":"9a081be2-15ad-482e-948c-b2ea8dd1e1e8"},"pointsMultiplier":1,"points":true,"image":"https://media.kahoot.it/9a081be2-15ad-482e-948c-b2ea8dd1e1e8","type":"quiz","questionFormat":0,"time":20000,"resources":"","video":{"startTime":0,"fullUrl":"","service":"youtube","id":"","endTime":0}},{"points":true,"pointsMultiplier":1,"image":"https://media.kahoot.it/25e457dd-39fc-4d7d-84c4-8f162d0c681f_opt","choices":[{"answer":"elements","correct":true},{"correct":false,"answer":"compounds"},{"answer":"mixtures","correct":false},{"correct":false,"answer":"solutions"}],"imageMetadata":{"resources":"","id":"25e457dd-39fc-4d7d-84c4-8f162d0c681f"},"type":"quiz","video":{"endTime":0,"id":"","fullUrl":"","startTime":0,"service":"youtube"},"question":"What are substances that CANNOT be broken down chemically into other substances?","resources":"","time":20000,"questionFormat":0},{"points":true,"resources":"","time":20000,"pointsMultiplier":1,"question":"Which of the following is an example of a mixture?","video":{"endTime":0,"startTime":0,"id":"","fullUrl":"","service":"youtube"},"image":"https://media.kahoot.it/00b774f5-d37b-4fe9-9f18-182120680af4_opt","imageMetadata":{"id":"00b774f5-d37b-4fe9-9f18-182120680af4","resources":""},"type":"quiz","questionFormat":0,"choices":[{"correct":false,"answer":"Carbon Dioxide"},{"answer":"Glucose","correct":false},{"correct":true,"answer":"Salt Water"},{"answer":"Gold","correct":false}]},{"resources":"","type":"quiz","question":"Which of the following is an example of physical change?","pointsMultiplier":1,"time":20000,"image":"https://media.kahoot.it/36fe49c5-2d4b-443d-8f27-d2e98fced9d8_opt","imageMetadata":{"resources":"","id":"36fe49c5-2d4b-443d-8f27-d2e98fced9d8"},"video":{"id":"","startTime":0,"service":"youtube","fullUrl":"","endTime":0},"choices":[{"answer":"burning paper","correct":false},{"answer":"baking cookies","correct":false},{"correct":false,"answer":"digesting food"},{"answer":"dissolving salt in water","correct":true}],"questionFormat":0,"points":true},{"time":20000,"imageMetadata":{"resources":"","id":"c302efc9-9459-4aaa-bba2-4faf9faee82e"},"video":{"id":"","startTime":0,"service":"youtube","fullUrl":"","endTime":0},"choices":[{"correct":false,"answer":"filtering"},{"correct":true,"answer":"burning wood"},{"correct":false,"answer":"boiling water"},{"answer":"crushing a can","correct":false}],"question":"Which of the following is an example of chemical change?","type":"quiz","points":true,"resources":"","questionFormat":0,"image":"https://media.kahoot.it/c302efc9-9459-4aaa-bba2-4faf9faee82e_opt","pointsMultiplier":1},{"resources":"","imageMetadata":{"resources":"","id":"2bbdda3e-4d0c-4aad-b6d1-6b320f734743"},"points":true,"choices":[{"answer":"states of matter","correct":false},{"answer":"physical property","correct":false},{"correct":true,"answer":"chemical property"},{"correct":false,"answer":"chemical formula"}],"video":{"startTime":0,"fullUrl":"","service":"youtube","id":"","endTime":0},"type":"quiz","questionFormat":0,"image":"https://media.kahoot.it/2bbdda3e-4d0c-4aad-b6d1-6b320f734743_opt","pointsMultiplier":1,"time":20000,"question":"The ability of methane to burn is a description of"},{"choices":[{"correct":false,"answer":"Calcium"},{"correct":true,"answer":"Carbon"},{"answer":"Cesium","correct":false},{"answer":"Cookie","correct":false}],"time":30000,"question":"Using the periodic table, name this element C","points":true,"pointsMultiplier":1,"image":"https://media.kahoot.it/71037288-2d29-4011-8a2d-8be5b8be6478_opt","type":"quiz","resources":"","imageMetadata":{"id":"71037288-2d29-4011-8a2d-8be5b8be6478","resources":""},"video":{"startTime":0,"fullUrl":"","id":"","service":"youtube","endTime":0},"questionFormat":0},{"time":30000,"points":true,"question":"What is the atomic number of C","choices":[{"answer":"6","correct":true},{"answer":"8","correct":false},{"answer":"10","correct":false},{"correct":false,"answer":"12"}],"pointsMultiplier":1,"imageMetadata":{"id":"d94c5c51-7559-444a-b0f7-5cdef57c56dc","resources":""},"image":"https://media.kahoot.it/d94c5c51-7559-444a-b0f7-5cdef57c56dc","type":"quiz","questionFormat":0,"video":{"endTime":0,"id":"","startTime":0,"fullUrl":"","service":"youtube"},"resources":""},{"time":30000,"points":true,"resources":"","imageMetadata":{"id":"ca1a7c8d-9d10-4d12-a574-7ff1f7f380c3","resources":""},"type":"quiz","video":{"startTime":0,"id":"","endTime":0,"fullUrl":"","service":"youtube"},"image":"https://media.kahoot.it/ca1a7c8d-9d10-4d12-a574-7ff1f7f380c3","question":"What is the atomic mass of C","choices":[{"answer":"6","correct":false},{"answer":"8","correct":false},{"correct":false,"answer":"10"},{"answer":"12","correct":true}],"questionFormat":0,"pointsMultiplier":1},{"choices":[{"answer":"6","correct":true},{"answer":"8","correct":false},{"answer":"10","correct":false},{"correct":false,"answer":"12"}],"time":30000,"imageMetadata":{"id":"fb23316a-079f-4e02-a69b-8009a24fadc2","resources":""},"question":"How many electrons are present in the element C","questionFormat":0,"type":"quiz","pointsMultiplier":1,"resources":"","points":true,"video":{"fullUrl":"","startTime":0,"service":"youtube","endTime":0,"id":""},"image":"https://media.kahoot.it/fb23316a-079f-4e02-a69b-8009a24fadc2"},{"type":"quiz","questionFormat":0,"points":true,"choices":[{"correct":true,"answer":"6"},{"answer":"8","correct":false},{"answer":"10","correct":false},{"answer":"12","correct":false}],"imageMetadata":{"resources":"","id":"7fe5da33-9134-4327-9f32-33224fdca349"},"pointsMultiplier":1,"image":"https://media.kahoot.it/7fe5da33-9134-4327-9f32-33224fdca349","resources":"","video":{"id":"","service":"youtube","endTime":0,"fullUrl":"","startTime":0},"time":30000,"question":"How many protons are present in the element C"},{"type":"quiz","image":"https://media.kahoot.it/d04b0177-6721-4ecf-8fda-ec75fd801779","video":{"service":"youtube","id":"","startTime":0,"endTime":0,"fullUrl":""},"time":30000,"imageMetadata":{"id":"d04b0177-6721-4ecf-8fda-ec75fd801779","resources":""},"resources":"","questionFormat":0,"question":"How many neutrons are present in the element C","pointsMultiplier":1,"points":true,"choices":[{"answer":"6","correct":true},{"correct":false,"answer":"8"},{"correct":false,"answer":"10"},{"answer":"12","correct":false}]},{"points":true,"question":"How many electrons are in the valence shell for the element C","video":{"id":"","fullUrl":"","startTime":0,"endTime":0,"service":"youtube"},"image":"https://media.kahoot.it/d8c79bc0-c60e-493f-a6ea-d1e43e62755e","pointsMultiplier":1,"resources":"","questionFormat":0,"type":"quiz","imageMetadata":{"id":"d8c79bc0-c60e-493f-a6ea-d1e43e62755e","resources":""},"time":30000,"choices":[{"answer":"2","correct":false},{"correct":true,"answer":"4"},{"answer":"6","correct":false},{"correct":false,"answer":"12"}]},{"question":"What is the correct electron shell configuration for the element C","points":true,"pointsMultiplier":1,"image":"https://media.kahoot.it/cc7a1b56-d802-4d89-8f23-842a783f55f5","type":"quiz","choices":[{"answer":"1,5","correct":false},{"correct":true,"answer":"2,4"},{"answer":"2,4,6","correct":false},{"answer":"2,8,2","correct":false}],"imageMetadata":{"resources":"","id":"cc7a1b56-d802-4d89-8f23-842a783f55f5"},"resources":"","time":30000,"questionFormat":0,"video":{"id":"","startTime":0,"service":"youtube","fullUrl":"","endTime":0}},{"points":true,"questionFormat":0,"question":"What period of the PTE is the element C found in?","resources":"","type":"quiz","video":{"fullUrl":"","startTime":0,"id":"","endTime":0,"service":"youtube"},"imageMetadata":{"resources":"","id":"94355d7c-ce8f-497e-8bf7-ded355b5335d"},"pointsMultiplier":1,"image":"https://media.kahoot.it/94355d7c-ce8f-497e-8bf7-ded355b5335d_opt","choices":[{"answer":"2","correct":true},{"answer":"3","correct":false},{"answer":"4","correct":false},{"correct":false,"answer":"5"}],"time":30000},{"imageMetadata":{"resources":"","id":"a324fb1e-4a62-4655-be5e-577a308bf09d"},"choices":[{"answer":"2","correct":false},{"answer":"4","correct":true},{"answer":"5","correct":false},{"answer":"6","correct":false}],"points":true,"video":{"endTime":0,"service":"youtube","id":"","startTime":0,"fullUrl":""},"time":30000,"image":"https://media.kahoot.it/a324fb1e-4a62-4655-be5e-577a308bf09d_opt","resources":"","questionFormat":0,"pointsMultiplier":1,"type":"quiz","question":"What group # contains the element C?"},{"question":"What type of element is the element C","imageMetadata":{"id":"56ce9dd5-eaf9-4a6b-8d8b-ca55844b9a6c","resources":""},"points":true,"image":"https://media.kahoot.it/56ce9dd5-eaf9-4a6b-8d8b-ca55844b9a6c_opt","time":20000,"choices":[{"answer":"metal","correct":false},{"answer":"metalloid","correct":false},{"correct":true,"answer":"non metal"},{"answer":"nobel gas","correct":false}],"type":"quiz","video":{"startTime":0,"service":"youtube","id":"","endTime":0,"fullUrl":""},"resources":"","pointsMultiplier":1,"questionFormat":0},{"choices":[{"answer":"CO","correct":false},{"correct":false,"answer":"CO<sub>2</sub>"},{"correct":true,"answer":"CaCl"},{"answer":"CH<sub>4</sub>","correct":false}],"image":"https://media.kahoot.it/409ab47f-bf13-4e2b-a048-1c6f9e1a3aa1_opt","question":"Which of the following is NOT a compound made with the element C","questionFormat":0,"points":true,"imageMetadata":{"id":"409ab47f-bf13-4e2b-a048-1c6f9e1a3aa1","resources":""},"resources":"","video":{"endTime":0,"startTime":0,"fullUrl":"","service":"youtube","id":""},"time":20000,"pointsMultiplier":1,"type":"quiz"},{"points":true,"pointsMultiplier":1,"video":{"startTime":0,"fullUrl":"","endTime":0,"service":"youtube","id":""},"time":20000,"choices":[{"answer":"electrons and protons","correct":false},{"answer":"neutrons and protons","correct":true},{"answer":"electrons and neutrons","correct":false},{"correct":false,"answer":"quarks and leptons"}],"questionFormat":0,"type":"quiz","image":"","question":"What subatomic particles are found in the nucleus?","resources":""},{"image":"","time":20000,"question":"What subatomic particle has a positive charge?","video":{"id":"","startTime":0,"fullUrl":"","endTime":0,"service":"youtube"},"pointsMultiplier":1,"type":"quiz","questionFormat":0,"points":true,"choices":[{"answer":"atom","correct":false},{"answer":"electron","correct":false},{"answer":"neutron","correct":false},{"answer":"proton","correct":true}],"resources":""},{"resources":"","image":"","video":{"service":"youtube","fullUrl":"","startTime":0,"endTime":0,"id":""},"pointsMultiplier":1,"questionFormat":0,"time":20000,"question":"In the mnemonic APE MAN, what does APE stand for","choices":[{"answer":"atomic mass = protons + electrons","correct":false},{"answer":"atomic number = protons + electrons","correct":false},{"correct":false,"answer":"atomic mass = protons = electrons"},{"correct":true,"answer":"atomic number = protons = electrons"}],"type":"quiz","points":true},{"question":"In the mnemonic APE MAN the MAN stands for","pointsMultiplier":1,"points":true,"type":"quiz","resources":"","time":20000,"choices":[{"answer":"atomic mass - atomic mass = neutrons","correct":false},{"correct":true,"answer":"atomic mass - atomic number = neutrons"},{"correct":false,"answer":"atomic mass = atomic mass - neutrons"},{"answer":"atomic mass = atomic number - neutron","correct":false}],"questionFormat":0,"image":"","video":{"service":"youtube","id":"","endTime":0,"startTime":0,"fullUrl":""}}],"uuid":"98f4f60f-8888-42a7-a37c-fba78cd0a844","answerMap":[4,4,4,4,4,4,4,4,4,4,4,4,4,4,4,4,4,4,4,4,4,4,4,4,4,4,4,4,4,4,4,4,4],"author":"ckknight2"}