{"author":"makaylamason23","questions":[{"type":"quiz","question":"What is a valence electron?","time":20000,"points":true,"pointsMultiplier":1,"choices":[{"answer":"electron in the s orbital","correct":false},{"answer":"electron in the highest occupied energy level","correct":true},{"answer":"transition metal","correct":false},{"answer":"representative element","correct":false}],"image":"http://s3-eu-west-1.amazonaws.com/lecturequizuploads/58dea927-ca24-4eaf-8256-a91fc253c9af","imageMetadata":{"id":"58dea927-ca24-4eaf-8256-a91fc253c9af"},"video":{"id":"","startTime":0,"endTime":0,"service":"youtube"},"questionFormat":0},{"type":"quiz","question":"How do you find the number of&nbsp;valence electrons?","time":20000,"points":true,"pointsMultiplier":1,"choices":[{"answer":"Group A number","correct":true},{"answer":"Group B number","correct":false},{"answer":"Ionic Charge","correct":false},{"answer":"transition metals","correct":false}],"image":"http://s3-eu-west-1.amazonaws.com/lecturequizuploads/7d35cf90-f085-4676-bdbc-da560ff0f2bb","imageMetadata":{"id":"7d35cf90-f085-4676-bdbc-da560ff0f2bb"},"video":{"id":"","startTime":0,"endTime":0,"service":"youtube"},"questionFormat":0},{"type":"quiz","question":"What type of bond occurs between oppositely charged ions?","time":20000,"points":true,"pointsMultiplier":1,"choices":[{"answer":"molecule","correct":false},{"answer":"covalent","correct":false},{"answer":"ionic","correct":true},{"answer":"polyatomic","correct":false}],"image":"http://s3-eu-west-1.amazonaws.com/lecturequizuploads/b7c281f7-e772-4b67-ab46-4fb544900cf1","imageMetadata":{"id":"b7c281f7-e772-4b67-ab46-4fb544900cf1"},"video":{"id":"","startTime":0,"endTime":0,"service":"youtube"},"questionFormat":0},{"type":"quiz","question":"What type of bond shares electrons?","time":20000,"points":true,"pointsMultiplier":1,"choices":[{"answer":"ionic","correct":false},{"answer":"covalent","correct":true},{"answer":"acidic","correct":false},{"answer":"metalic","correct":false}],"image":"http://s3-eu-west-1.amazonaws.com/lecturequizuploads/20e66792-a59f-4e96-928a-3be866ae3cf4","imageMetadata":{"id":"20e66792-a59f-4e96-928a-3be866ae3cf4"},"video":{"id":"","startTime":0,"endTime":0,"service":"youtube"},"questionFormat":0},{"type":"quiz","question":"What is an anion of chlorine or other halogen?","time":20000,"points":true,"pointsMultiplier":1,"choices":[{"answer":"cation","correct":false},{"answer":"anion","correct":false},{"answer":"halogen","correct":false},{"answer":"halide ion","correct":true}],"image":"http://s3-eu-west-1.amazonaws.com/lecturequizuploads/11fd6c55-38d7-4273-9c11-8da5c092a34b","imageMetadata":{"id":"11fd6c55-38d7-4273-9c11-8da5c092a34b"},"video":{"id":"","startTime":0,"endTime":0,"service":"youtube"},"questionFormat":0},{"type":"quiz","question":"The reason atoms react to acquire the stable electron structure of a noble gas:","time":20000,"points":true,"pointsMultiplier":1,"choices":[{"answer":"octet rule","correct":true},{"answer":"valence electrons","correct":false},{"answer":"noble gas configuration","correct":false},{"answer":"stability","correct":false}],"image":"http://s3-eu-west-1.amazonaws.com/lecturequizuploads/2212877a-e747-46fc-9199-04c6d80e6538","imageMetadata":{"id":"2212877a-e747-46fc-9199-04c6d80e6538"},"video":{"id":"","startTime":0,"endTime":0,"service":"youtube"},"questionFormat":0},{"type":"quiz","question":"What shows the valence electrons around the symbol of an element?","time":20000,"points":true,"pointsMultiplier":1,"choices":[{"answer":"valence electrons","correct":false},{"answer":"polyatomic ion","correct":false},{"answer":"electron dot structure","correct":true},{"answer":"Group A numbers","correct":false}],"image":"http://s3-eu-west-1.amazonaws.com/lecturequizuploads/d509fd74-6307-43e7-af1c-9e5b7ad70a90","imageMetadata":{"id":"d509fd74-6307-43e7-af1c-9e5b7ad70a90"},"video":{"id":"","startTime":0,"endTime":0,"service":"youtube"},"questionFormat":0},{"type":"quiz","question":"How many valence electrons are in Mg?","time":20000,"points":true,"pointsMultiplier":1,"choices":[{"answer":"1","correct":false},{"answer":"2","correct":true},{"answer":"3","correct":false},{"answer":"4","correct":false}],"image":"http://s3-eu-west-1.amazonaws.com/lecturequizuploads/02e2d9ca-9111-409c-9161-ac9ef16cab9a","imageMetadata":{"id":"02e2d9ca-9111-409c-9161-ac9ef16cab9a"},"video":{"id":"","startTime":0,"endTime":0,"service":"youtube"},"questionFormat":0},{"type":"quiz","question":"How many valence electrons are in Si?","time":20000,"points":true,"pointsMultiplier":1,"choices":[{"answer":"2","correct":false},{"answer":"3","correct":false},{"answer":"6","correct":true},{"answer":"14","correct":false}],"image":"http://s3-eu-west-1.amazonaws.com/lecturequizuploads/8194dd60-8909-4466-96f5-bc282c3d7587","imageMetadata":{"id":"8194dd60-8909-4466-96f5-bc282c3d7587"},"video":{"id":"","startTime":0,"endTime":0,"service":"youtube"},"questionFormat":0},{"type":"quiz","question":"How to cations react to form compounds?","time":20000,"points":true,"pointsMultiplier":1,"choices":[{"answer":"gain electrons","correct":false},{"answer":"lose electrons","correct":true},{"answer":"share electrons","correct":false},{"answer":"become negative","correct":false}],"image":"http://s3-eu-west-1.amazonaws.com/lecturequizuploads/2395a97a-8e5b-41d6-9df5-db7bee2a0098","imageMetadata":{"id":"2395a97a-8e5b-41d6-9df5-db7bee2a0098"},"video":{"id":"","startTime":0,"endTime":0,"service":"youtube"},"questionFormat":0},{"type":"quiz","question":"How do anions react to form compounds?","time":20000,"points":true,"pointsMultiplier":1,"choices":[{"answer":"share electrons","correct":false},{"answer":"change to -ide","correct":false},{"answer":"gain electrons","correct":true},{"answer":"lose electrons","correct":false}],"image":"http://s3-eu-west-1.amazonaws.com/lecturequizuploads/f8052cbc-f1a4-4d42-a164-f7f551755d77","imageMetadata":{"id":"f8052cbc-f1a4-4d42-a164-f7f551755d77"},"video":{"id":"","startTime":0,"endTime":0,"service":"youtube"},"questionFormat":0},{"type":"quiz","question":"What is the charge on Al?","time":20000,"points":true,"pointsMultiplier":1,"choices":[{"answer":"1+","correct":false},{"answer":"2+","correct":false},{"answer":"3+","correct":true},{"answer":"3-","correct":false}],"image":"http://s3-eu-west-1.amazonaws.com/lecturequizuploads/3d33550a-4094-437c-afeb-5c0dbd682e16","imageMetadata":{"id":"3d33550a-4094-437c-afeb-5c0dbd682e16"},"video":{"id":"","startTime":0,"endTime":0,"service":"youtube"},"questionFormat":0},{"type":"quiz","question":"What ion forms for&nbsp;Potassium to reach noble-gas configuration?","time":20000,"points":true,"pointsMultiplier":1,"choices":[{"answer":"P<sup>2-</sup>","correct":false},{"answer":"K<sup>1+</sup>","correct":true},{"answer":"K<sup>2+</sup>","correct":false},{"answer":"P<sup>3-</sup>","correct":false}],"image":"http://s3-eu-west-1.amazonaws.com/lecturequizuploads/705bb0b3-57a1-4e61-ad27-f96e1e2e4711","imageMetadata":{"id":"705bb0b3-57a1-4e61-ad27-f96e1e2e4711"},"video":{"id":"","startTime":0,"endTime":0,"service":"youtube"},"questionFormat":0},{"type":"quiz","question":"What is the formula of sodium nitride?","time":20000,"points":true,"pointsMultiplier":1,"choices":[{"answer":"NaN","correct":false},{"answer":"Na<sub>2</sub>N","correct":false},{"answer":"Na<sub>3</sub>N","correct":true},{"answer":"NaN<sub>3</sub>","correct":false}],"image":"http://s3-eu-west-1.amazonaws.com/lecturequizuploads/07da2344-f9b1-4ae4-94ed-e380d79f3535","imageMetadata":{"id":"07da2344-f9b1-4ae4-94ed-e380d79f3535"},"video":{"id":"","startTime":0,"endTime":0,"service":"youtube"},"questionFormat":0},{"type":"quiz","question":"What is the name for FeO?","time":20000,"points":true,"pointsMultiplier":1,"choices":[{"answer":"iron oxide","correct":false},{"answer":"iron (II) oxide","correct":true},{"answer":"fluorine oxide","correct":false},{"answer":"iron oxygen","correct":false}],"image":"http://s3-eu-west-1.amazonaws.com/lecturequizuploads/c656c782-0da9-4d02-b608-025d4081e295","imageMetadata":{"id":"c656c782-0da9-4d02-b608-025d4081e295"},"video":{"id":"","startTime":0,"endTime":0,"service":"youtube"},"questionFormat":0},{"type":"quiz","question":"What is the formula for sodium sulfate?","time":20000,"points":true,"pointsMultiplier":1,"choices":[{"answer":"NaSO<sub>4</sub>","correct":false},{"answer":"Na<sub>2</sub>SO<sub>4</sub>","correct":true},{"answer":"Na(SO<sub>4</sub>)<sub>2</sub>","correct":false},{"answer":"Na<sub>2</sub>(SO<sub>4</sub>)<sub>2</sub>","correct":false}],"image":"http://s3-eu-west-1.amazonaws.com/lecturequizuploads/04ddddc5-6672-40bc-976c-889442ff3084","imageMetadata":{"id":"04ddddc5-6672-40bc-976c-889442ff3084"},"video":{"id":"","startTime":0,"endTime":0,"service":"youtube"},"questionFormat":0},{"type":"quiz","question":"What is the name of KNO<sub>3</sub>?","time":20000,"points":true,"pointsMultiplier":1,"choices":[{"answer":"potassium nitrate","correct":true},{"answer":"potassium nitride","correct":false},{"answer":"potassium nitrite","correct":false},{"answer":"potassium nitrogen oxide","correct":false}],"image":"http://s3-eu-west-1.amazonaws.com/lecturequizuploads/3fb9fd22-dc9d-459f-a230-4dc861656370","imageMetadata":{"id":"3fb9fd22-dc9d-459f-a230-4dc861656370"},"video":{"id":"","startTime":0,"endTime":0,"service":"youtube"},"questionFormat":0},{"type":"quiz","question":"Ionic compounds are made of what?","time":20000,"points":true,"pointsMultiplier":1,"choices":[{"answer":"nonmetals","correct":false},{"answer":"nonmetals and metals","correct":true},{"answer":"anions","correct":false},{"answer":"nonmetals and metalloids","correct":false}],"image":"http://s3-eu-west-1.amazonaws.com/lecturequizuploads/307fa4ab-54c7-4554-abef-c13846b82f7d","imageMetadata":{"id":"307fa4ab-54c7-4554-abef-c13846b82f7d"},"video":{"id":"","startTime":0,"endTime":0,"service":"youtube"},"questionFormat":0},{"type":"quiz","question":"Ionic compounds in what physical state at room temp?","time":20000,"points":true,"pointsMultiplier":1,"choices":[{"answer":"solid","correct":true},{"answer":"liquid","correct":false},{"answer":"gas","correct":false},{"answer":"water","correct":false}],"image":"http://s3-eu-west-1.amazonaws.com/lecturequizuploads/c671f10b-6f77-4d83-89bb-976f79f01347","imageMetadata":{"id":"c671f10b-6f77-4d83-89bb-976f79f01347"},"video":{"id":"","startTime":0,"endTime":0,"service":"youtube"},"questionFormat":0},{"type":"quiz","question":"what is true about the melting point of NaCl?","time":20000,"points":true,"pointsMultiplier":1,"choices":[{"answer":"relatively high","correct":true},{"answer":"unpredictable","correct":false},{"answer":"relatively low","correct":false},{"answer":"does not melt","correct":false}],"image":"http://s3-eu-west-1.amazonaws.com/lecturequizuploads/5cea198e-ee28-4cfa-ab7b-9e457529e2df","imageMetadata":{"id":"5cea198e-ee28-4cfa-ab7b-9e457529e2df"},"video":{"id":"","startTime":0,"endTime":0,"service":"youtube"},"questionFormat":0},{"type":"quiz","question":"what is true about the boiling point of N<sub>2</sub>O<sub>3</sub>?","time":20000,"points":true,"pointsMultiplier":1,"choices":[{"answer":"relatively high","correct":false},{"answer":"unpredictable","correct":false},{"answer":"relatively low","correct":true},{"answer":"does not boil","correct":false}],"image":"http://s3-eu-west-1.amazonaws.com/lecturequizuploads/dccb8aad-2be0-4a5a-8678-28402bf79a43","imageMetadata":{"id":"dccb8aad-2be0-4a5a-8678-28402bf79a43"},"video":{"id":"","startTime":0,"endTime":0,"service":"youtube"},"questionFormat":0},{"type":"quiz","question":"Why do atoms share electrons in covalent bonds?","time":20000,"points":true,"pointsMultiplier":1,"choices":[{"answer":"to become ions","correct":false},{"answer":"to attain noble gas configuration","correct":true},{"answer":"to become more polar","correct":false},{"answer":"to increase atomic number","correct":false}],"image":"http://s3-eu-west-1.amazonaws.com/lecturequizuploads/2eaf77b6-de2f-4966-8182-f55fd4a06e9d","imageMetadata":{"id":"2eaf77b6-de2f-4966-8182-f55fd4a06e9d"},"video":{"id":"","startTime":0,"endTime":0,"service":"youtube"},"questionFormat":0},{"type":"quiz","question":"Which of the following acquires the most negative bond with hydrogen?","time":20000,"points":true,"pointsMultiplier":1,"choices":[{"answer":"C","correct":false},{"answer":"Na","correct":false},{"answer":"O","correct":true},{"answer":"S","correct":false}],"image":"http://s3-eu-west-1.amazonaws.com/lecturequizuploads/68e29a8b-5dcf-45ea-b70a-7945920ca6fa","imageMetadata":{"id":"68e29a8b-5dcf-45ea-b70a-7945920ca6fa"},"video":{"id":"","startTime":0,"endTime":0,"service":"youtube"},"questionFormat":0},{"type":"quiz","question":"What is the formula for alumninum oxide?","time":20000,"points":true,"pointsMultiplier":1,"choices":[{"answer":"AlO","correct":false},{"answer":"Al<sub>3</sub>O","correct":false},{"answer":"Al<sub>2</sub>O<sub>3</sub>","correct":true},{"answer":"AlO<sub>3</sub>","correct":false}],"image":"http://s3-eu-west-1.amazonaws.com/lecturequizuploads/b882e310-025d-42ad-96f2-8e30d6250833","imageMetadata":{"id":"b882e310-025d-42ad-96f2-8e30d6250833"},"video":{"id":"","startTime":0,"endTime":0,"service":"youtube"},"questionFormat":0},{"type":"quiz","question":"Which element is a diatomic molecule?","time":20000,"points":true,"pointsMultiplier":1,"choices":[{"answer":"oxygen","correct":true},{"answer":"calcium","correct":false},{"answer":"sodium","correct":false},{"answer":"aluminum","correct":false}],"image":"http://s3-eu-west-1.amazonaws.com/lecturequizuploads/06e223db-f526-4efd-802f-6960df61d9d4","imageMetadata":{"id":"06e223db-f526-4efd-802f-6960df61d9d4"},"video":{"id":"","startTime":0,"endTime":0,"service":"youtube"},"questionFormat":0},{"type":"quiz","question":"What charge do anions form?","time":20000,"points":true,"pointsMultiplier":1,"choices":[{"answer":"positive","correct":false},{"answer":"negative","correct":true},{"answer":"slightly negative","correct":false},{"answer":"slightly positive","correct":false}],"image":"http://s3-eu-west-1.amazonaws.com/lecturequizuploads/d0dd35b8-083d-4266-abf6-b21d585ad0ea","imageMetadata":{"id":"d0dd35b8-083d-4266-abf6-b21d585ad0ea"},"video":{"id":"","startTime":0,"endTime":0,"service":"youtube"},"questionFormat":0},{"type":"quiz","question":"When naming an anion what changes?","time":20000,"points":true,"pointsMultiplier":1,"choices":[{"answer":"prefix","correct":false},{"answer":"beginning","correct":false},{"answer":"suffix","correct":true},{"answer":"the cation","correct":false}],"image":"http://s3-eu-west-1.amazonaws.com/lecturequizuploads/6479ae2d-d4a8-4c25-aa3a-83eb3061bc19","imageMetadata":{"id":"6479ae2d-d4a8-4c25-aa3a-83eb3061bc19"},"video":{"id":"","startTime":0,"endTime":0,"service":"youtube"},"questionFormat":0},{"type":"quiz","question":"What bond do polyatomic ions form with elements?","time":20000,"points":true,"pointsMultiplier":1,"choices":[{"answer":"ionic","correct":true},{"answer":"covalent","correct":false},{"answer":"molecular","correct":false},{"answer":"polyatomic bond","correct":false}],"image":"http://s3-eu-west-1.amazonaws.com/lecturequizuploads/e40af495-95f4-4854-8c79-0328aed1b6a2","imageMetadata":{"id":"e40af495-95f4-4854-8c79-0328aed1b6a2"},"video":{"id":"","startTime":0,"endTime":0,"service":"youtube"},"questionFormat":0},{"type":"quiz","question":"Which is an example of a polar bond?","time":20000,"points":true,"pointsMultiplier":1,"choices":[{"answer":"NaCl","correct":false},{"answer":"halogens","correct":false},{"answer":"salt","correct":false},{"answer":"water","correct":true}],"image":"http://s3-eu-west-1.amazonaws.com/lecturequizuploads/cf1dbde0-98fd-4a67-a50d-3588dec25445","imageMetadata":{"id":"cf1dbde0-98fd-4a67-a50d-3588dec25445"},"video":{"id":"","startTime":0,"endTime":0,"service":"youtube"},"questionFormat":0},{"type":"quiz","question":"What is the prefix for 5 number of atoms?","time":20000,"points":true,"pointsMultiplier":1,"choices":[{"answer":"hexa","correct":false},{"answer":"tetra","correct":false},{"answer":"penta","correct":true},{"answer":"deca","correct":false}],"image":"http://s3-eu-west-1.amazonaws.com/lecturequizuploads/48e3073d-c2f3-4976-98a3-41e99f913e68","imageMetadata":{"id":"48e3073d-c2f3-4976-98a3-41e99f913e68"},"video":{"id":"","startTime":0,"endTime":0,"service":"youtube"},"questionFormat":0},{"type":"quiz","question":"What is the formula for dinitrogen monoxide?","time":20000,"points":true,"pointsMultiplier":1,"choices":[{"answer":"N<sub>2</sub>O","correct":true},{"answer":"NO","correct":false},{"answer":"NO<sub>2</sub>","correct":false},{"answer":"N<sub>2</sub>O<sub>2</sub>","correct":false}],"image":"http://s3-eu-west-1.amazonaws.com/lecturequizuploads/3799dff7-bee4-4e0e-b4f0-2fc653c0ebfd","imageMetadata":{"id":"3799dff7-bee4-4e0e-b4f0-2fc653c0ebfd"},"video":{"id":"","startTime":0,"endTime":0,"service":"youtube"},"questionFormat":0},{"type":"quiz","question":"What is the name for HF<sub>5</sub>?","time":20000,"points":true,"pointsMultiplier":1,"choices":[{"answer":"hydrogen pentafluoride","correct":true},{"answer":"monohyrdogen pentafluoride","correct":false},{"answer":"pentahydrogen monofluoride","correct":false},{"answer":"hydrogen pentafluorine","correct":false}],"image":"http://s3-eu-west-1.amazonaws.com/lecturequizuploads/9d1703f9-8224-4717-b954-2a6d20fbee80","imageMetadata":{"id":"9d1703f9-8224-4717-b954-2a6d20fbee80"},"video":{"id":"","startTime":0,"endTime":0,"service":"youtube"},"questionFormat":0},{"type":"quiz","question":"What is the name for S<sub>2</sub>O?","time":20000,"points":true,"pointsMultiplier":1,"choices":[{"answer":"sulfur dioxide","correct":false},{"answer":"monosulfur dioxide","correct":false},{"answer":"disulfur oxide","correct":false},{"answer":"disulfur monoxide","correct":true}],"image":"http://s3-eu-west-1.amazonaws.com/lecturequizuploads/9ba3c359-84c9-4c8c-9641-f3560f98cf9f","imageMetadata":{"id":"9ba3c359-84c9-4c8c-9641-f3560f98cf9f"},"video":{"id":"","startTime":0,"endTime":0,"service":"youtube"},"questionFormat":0},{"type":"quiz","question":"What is the prefix for 9 number of atoms?","time":20000,"points":true,"pointsMultiplier":1,"choices":[{"answer":"penta","correct":false},{"answer":"nona","correct":true},{"answer":"deca","correct":false},{"answer":"tetra","correct":false}],"image":"http://s3-eu-west-1.amazonaws.com/lecturequizuploads/40b0cf1d-3ca3-4e97-876d-0c8cda8071b6","imageMetadata":{"id":"40b0cf1d-3ca3-4e97-876d-0c8cda8071b6"},"video":{"id":"","startTime":0,"endTime":0,"service":"youtube"},"questionFormat":0},{"type":"quiz","question":"What is an example of a nonpolar covalent bond?","time":20000,"points":true,"pointsMultiplier":1,"choices":[{"answer":"NaCl","correct":false},{"answer":"O<sub>2</sub>","correct":true},{"answer":"H<sub>2</sub>O","correct":false},{"answer":"RbF","correct":false}],"image":"http://s3-eu-west-1.amazonaws.com/lecturequizuploads/4575645f-e5d2-45ea-b456-3b14da36608c","imageMetadata":{"id":"4575645f-e5d2-45ea-b456-3b14da36608c"},"video":{"id":"","startTime":0,"endTime":0,"service":"youtube"},"questionFormat":0}],"answerMap":[4,4,4,4,4,4,4,4,4,4,4,4,4,4,4,4,4,4,4,4,4,4,4,4,4,4,4,4,4,4,4,4,4,4,4],"uuid":"ad86fbed-125a-42ad-bde9-711f4194b4b8"}