{"author":"mathew.ciaramitaro","questions":[{"type":"quiz","question":"What is the smallest particle in which an element can be divided and still be the same thing","time":20000,"points":true,"pointsMultiplier":1,"choices":[{"answer":"nucleus","correct":false},{"answer":"electron","correct":false},{"answer":"atom","correct":true},{"answer":"neutron","correct":false}],"image":"","resources":"","video":{"id":"","startTime":0,"endTime":0,"service":"youtube","fullUrl":""},"questionFormat":0},{"type":"quiz","question":"How could you describe a nucleus?","time":20000,"points":true,"pointsMultiplier":1,"choices":[{"answer":"Dense, positive charge","correct":true},{"answer":"tiny, negative charge","correct":false},{"answer":"Large, positive charge","correct":false},{"answer":"dense, negative charge","correct":false}],"image":"","resources":"","video":{"id":"","startTime":0,"endTime":0,"service":"youtube","fullUrl":""},"questionFormat":0},{"type":"quiz","question":"Which of the following determines the identity of an element?","time":20000,"points":true,"pointsMultiplier":1,"choices":[{"answer":"Atomic mass","correct":false},{"answer":"mass number","correct":false},{"answer":"Atomic number","correct":true},{"answer":"Atomic charge","correct":false}],"image":"","resources":"","video":{"id":"","startTime":0,"endTime":0,"service":"youtube","fullUrl":""},"questionFormat":0},{"type":"quiz","question":"If the number of protons and electrons are not equal, it becomes a charged particle called a(n)","time":20000,"points":true,"pointsMultiplier":1,"choices":[{"answer":"isotope","correct":false},{"answer":"ion","correct":true},{"answer":"atom","correct":false},{"answer":"proton","correct":false}],"image":"","resources":"","video":{"id":"","startTime":0,"endTime":0,"service":"youtube","fullUrl":""},"questionFormat":0},{"type":"quiz","question":"What does  a chair, sock, and desk have in common?","time":20000,"points":true,"pointsMultiplier":1,"choices":[{"answer":"All have cells","correct":false},{"answer":"All have 3 types of atoms","correct":false},{"answer":"All have the same atomic symbols","correct":false},{"answer":"All are composed of atoms","correct":true}],"image":"","resources":"","video":{"id":"","startTime":0,"endTime":0,"service":"youtube","fullUrl":""},"questionFormat":0},{"type":"quiz","question":"Which of the following has no charge and is found in the nucleus","time":20000,"points":true,"pointsMultiplier":1,"choices":[{"answer":"Proton","correct":false},{"answer":"Atom","correct":false},{"answer":"Neutron","correct":true},{"answer":"Electron","correct":false}],"image":"","resources":"","video":{"id":"","startTime":0,"endTime":0,"service":"youtube","fullUrl":""},"questionFormat":0},{"type":"quiz","question":"Isotopes have the same number of what particles?","time":20000,"points":true,"pointsMultiplier":1,"choices":[{"answer":"Protons","correct":true},{"answer":"Neutrons","correct":false},{"answer":"Electrons","correct":false},{"answer":"Nucleons","correct":false}],"image":"","resources":"","video":{"id":"","startTime":0,"endTime":0,"service":"youtube","fullUrl":""},"questionFormat":0},{"type":"quiz","question":"If an element has 1 proton and 0 neutrons, then the element is what?","time":20000,"points":true,"pointsMultiplier":1,"choices":[{"answer":"Sodium","correct":false},{"answer":"Hydrogen","correct":true},{"answer":"Lithium","correct":false},{"answer":"Gold","correct":false}],"image":"","resources":"","video":{"id":"","startTime":0,"endTime":0,"service":"youtube","fullUrl":""},"questionFormat":0},{"type":"quiz","question":"Objects that have the same charge  will________ each other","time":20000,"points":true,"pointsMultiplier":1,"choices":[{"answer":"Bump into","correct":false},{"answer":"Attract","correct":false},{"answer":"Stick to","correct":false},{"answer":"Repel","correct":true}],"image":"","resources":"","video":{"id":"","startTime":0,"endTime":0,"service":"youtube","fullUrl":""},"questionFormat":0},{"type":"quiz","question":"An atom of gold has 79 protons, 79 electrons, and 118 neutrons. What is its mass number?","time":20000,"points":true,"pointsMultiplier":1,"choices":[{"answer":"39","correct":false},{"answer":"197","correct":true},{"answer":"158","correct":false},{"answer":"276","correct":false}],"image":"","resources":"","video":{"id":"","startTime":0,"endTime":0,"service":"youtube","fullUrl":""},"questionFormat":0},{"type":"quiz","question":"How is a compound different than a mixture?","time":20000,"points":true,"pointsMultiplier":1,"choices":[{"answer":"Compounds have 2 or more components","correct":false},{"answer":"Each substance loses its characteristic properties","correct":true},{"answer":"Compounds are commonly found in nature","correct":false},{"answer":"Solids, liquids, and gases can form mixtures","correct":false}],"image":"","resources":"","video":{"id":"","startTime":0,"endTime":0,"service":"youtube","fullUrl":""},"questionFormat":0},{"type":"quiz","question":"The word \"molecule\" is used to describe which of the following","time":20000,"points":true,"pointsMultiplier":1,"choices":[{"answer":"Element","correct":false},{"answer":"Mixture","correct":false},{"answer":"Compound","correct":true},{"answer":"Atom","correct":false}],"image":"","resources":"","video":{"id":"","startTime":0,"endTime":0,"service":"youtube","fullUrl":""},"questionFormat":0},{"type":"quiz","question":"In a solid, the particles","time":20000,"points":true,"pointsMultiplier":1,"choices":[{"answer":"overcome the attraction between them","correct":false},{"answer":"Slide past one another","correct":false},{"answer":"Vibrate in place","correct":true},{"answer":"Move independently of one another","correct":false}],"image":"","resources":"","video":{"id":"","startTime":0,"endTime":0,"service":"youtube","fullUrl":""},"questionFormat":0},{"type":"quiz","question":"Crystalline solids","time":20000,"points":true,"pointsMultiplier":1,"choices":[{"answer":"Include glass and rubber","correct":false},{"answer":"have particles not in a special arrangement","correct":false},{"answer":"May be liquids","correct":false},{"answer":"Have particles in repeating patterns of rows","correct":true}],"image":"","resources":"","video":{"id":"","startTime":0,"endTime":0,"service":"youtube","fullUrl":""},"questionFormat":0},{"type":"quiz","question":"A gas","time":20000,"points":true,"pointsMultiplier":1,"choices":[{"answer":"Has a definite shape but no definite volume","correct":false},{"answer":"has a definite volume but no definite shape","correct":false},{"answer":"Has fast-moving particles","correct":true},{"answer":"have particles always close together","correct":false}],"image":"","resources":"","video":{"id":"","startTime":0,"endTime":0,"service":"youtube","fullUrl":""},"questionFormat":0},{"type":"quiz","question":"At higher temperatures,","time":20000,"points":true,"pointsMultiplier":1,"choices":[{"answer":"Particles bump into walls less often","correct":false},{"answer":"Gas contracts","correct":false},{"answer":"Particles in an object move faster","correct":true},{"answer":"Particles in an object have less energy","correct":false}],"image":"","resources":"","video":{"id":"","startTime":0,"endTime":0,"service":"youtube","fullUrl":""},"questionFormat":0},{"type":"quiz","question":"Boyle's law explains the relationship between volume and pressure for a fixed amount of","time":20000,"points":true,"pointsMultiplier":1,"choices":[{"answer":"a solid","correct":false},{"answer":"a gas","correct":true},{"answer":"a liquid","correct":false},{"answer":"any type of matter","correct":false}],"image":"","resources":"","video":{"id":"","startTime":0,"endTime":0,"service":"youtube","fullUrl":""},"questionFormat":0},{"type":"quiz","question":"According to Charles law","time":20000,"points":true,"pointsMultiplier":1,"choices":[{"answer":"Heating a balloon will cause it to expand","correct":true},{"answer":"Pumping air into a bball will increase the pressure","correct":false},{"answer":"Crushing a closed container of gas will increase pressure","correct":false},{"answer":"filling a balloon with helium will cause it to rise","correct":false}],"image":"","resources":"","video":{"id":"","startTime":0,"endTime":0,"service":"youtube","fullUrl":""},"questionFormat":0},{"type":"quiz","question":"THe melting point of salt is the same as its","time":20000,"points":true,"pointsMultiplier":1,"choices":[{"answer":"boiling point","correct":false},{"answer":"freezing point","correct":true},{"answer":"condensation point","correct":false},{"answer":"sublimation point","correct":false}],"image":"","resources":"","video":{"id":"","startTime":0,"endTime":0,"service":"youtube","fullUrl":""},"questionFormat":0},{"type":"quiz","question":"In order for carbon dioxide gas to enter the air from dry ice, the dry ice must","time":20000,"points":true,"pointsMultiplier":1,"choices":[{"answer":"boil","correct":false},{"answer":"gain energy","correct":true},{"answer":"increase in pressure","correct":false},{"answer":"undergo exothermic reaction","correct":false}],"image":"","resources":"","video":{"id":"","startTime":0,"endTime":0,"service":"youtube","fullUrl":""},"questionFormat":0},{"type":"quiz","question":"If an isotope of Carbon, C-13 has 6 protons, then how many protons does C-16 have?","time":20000,"points":true,"pointsMultiplier":1,"choices":[{"answer":"3","correct":false},{"answer":"9","correct":false},{"answer":"6","correct":true},{"answer":"29","correct":false}],"image":"","resources":"","video":{"id":"","startTime":0,"endTime":0,"service":"youtube","fullUrl":""},"questionFormat":0},{"type":"quiz","question":"Particles that are close in a beaker become farther apart in the beaker can be explained how","time":20000,"points":true,"pointsMultiplier":1,"choices":[{"answer":"matter changed from a gas to a liquid as temp increased","correct":false},{"answer":"matter changed from liquid to gas as temp increased","correct":true},{"answer":"matter changed from liquid to gas as temp decreased","correct":false},{"answer":"matter changed from a gas to a liquid as temp decreased","correct":false}],"image":"","resources":"","video":{"id":"","startTime":0,"endTime":0,"service":"youtube","fullUrl":""},"questionFormat":0},{"type":"quiz","question":"What is the name of the point where a subs. can exist as a solid. liquid, and gas at equilibrum","time":20000,"points":true,"pointsMultiplier":1,"choices":[{"answer":"Critical Point","correct":false},{"answer":"Absolute zero","correct":false},{"answer":"Melting Point","correct":false},{"answer":"Triple Point","correct":true}],"image":"","resources":"","video":{"id":"","startTime":0,"endTime":0,"service":"youtube","fullUrl":""},"questionFormat":0},{"type":"quiz","question":"Mendeleev arranged the elements by","time":20000,"points":true,"pointsMultiplier":1,"choices":[{"answer":"density","correct":false},{"answer":"increasing atomic mass","correct":true},{"answer":"melting point","correct":false},{"answer":"appearance","correct":false}],"image":"","resources":"","video":{"id":"","startTime":0,"endTime":0,"service":"youtube","fullUrl":""},"questionFormat":0},{"type":"quiz","question":"Mendeleev's periodic table was useful because it","time":20000,"points":true,"pointsMultiplier":1,"choices":[{"answer":"arranged elements by atomic number","correct":false},{"answer":"had no empty spaces","correct":false},{"answer":"allowed for the prediction of properties of missing elements","correct":true},{"answer":"showed atomic mass of the elements","correct":false}],"image":"","resources":"","video":{"id":"","startTime":0,"endTime":0,"service":"youtube","fullUrl":""},"questionFormat":0},{"type":"quiz","question":"Which of the following statements of the periodic table is false?","time":20000,"points":true,"pointsMultiplier":1,"choices":[{"answer":"More metals than nonmetals","correct":false},{"answer":"Elements on the far left of periodic table are nonmetals","correct":true},{"answer":"It has 92 naturally occuring elements","correct":false},{"answer":"Elements are arranged by increasing atomic number","correct":false}],"image":"","resources":"","video":{"id":"","startTime":0,"endTime":0,"service":"youtube","fullUrl":""},"questionFormat":0},{"type":"quiz","question":"What type of change is sugar dissolving in water","time":20000,"points":true,"pointsMultiplier":1,"choices":[{"answer":"Chemical","correct":false},{"answer":"Physical","correct":true}],"image":"","resources":"","video":{"id":"","startTime":0,"endTime":0,"service":"youtube","fullUrl":""},"questionFormat":0},{"type":"quiz","question":"What type of change is fireworks giving off heat and energy?","time":20000,"points":true,"pointsMultiplier":1,"choices":[{"answer":"Chemical","correct":true},{"answer":"Physical","correct":false}],"image":"","resources":"","video":{"id":"","startTime":0,"endTime":0,"service":"youtube","fullUrl":""},"questionFormat":0},{"type":"quiz","question":"Which family of elements have 2 outer energy level of electrons?","time":20000,"points":true,"pointsMultiplier":1,"choices":[{"answer":"Alkali Metals","correct":false},{"answer":"Halogens","correct":false},{"answer":"Alkali Earth Metals","correct":true},{"answer":"Noble Gases","correct":false}],"image":"","resources":"","video":{"id":"","startTime":0,"endTime":0,"service":"youtube","fullUrl":""},"questionFormat":0},{"type":"quiz","question":"Which family of elements are unreactive nonmetals under normal conditions","time":20000,"points":true,"pointsMultiplier":1,"choices":[{"answer":"Alkali Metals","correct":false},{"answer":"Halogens","correct":false},{"answer":"Alkaline Earth Metals","correct":false},{"answer":"Noble gases","correct":true}],"image":"","resources":"","video":{"id":"","startTime":0,"endTime":0,"service":"youtube","fullUrl":""},"questionFormat":0}],"answerMap":[4,4,4,4,4,4,4,4,4,4,4,4,4,4,4,4,4,4,4,4,4,4,4,4,4,4,2,2,4,4],"uuid":"af0c7b95-8016-438f-a297-2a5905389961"}