{"questions":[{"choices":[{"answer":"atomic number","correct":true},{"correct":false,"answer":"atomic mass"},{"correct":false,"answer":"mass number"},{"correct":false,"answer":"atomic radius"}],"time":60000,"question":"This always increases on the periodic table","pointsMultiplier":1,"image":"http://s3-eu-west-1.amazonaws.com/lecturequizuploads/cd7f9353-b9df-45e9-af74-d89c805e3e43_opt","type":"quiz","points":true,"questionFormat":0,"video":{"id":"","startTime":0,"service":"youtube","endTime":0},"imageMetadata":{"id":"cd7f9353-b9df-45e9-af74-d89c805e3e43"}},{"type":"quiz","pointsMultiplier":1,"imageMetadata":{"id":"c101e12f-e2d9-4158-b13c-26742a4b3c6f"},"image":"http://s3-eu-west-1.amazonaws.com/lecturequizuploads/c101e12f-e2d9-4158-b13c-26742a4b3c6f_opt","question":"This subatomic particle has the greatest part in determining chemical properties","questionFormat":0,"video":{"id":"","service":"youtube","startTime":0,"endTime":0},"choices":[{"answer":"electron","correct":true},{"answer":"proton","correct":false},{"answer":"neutron","correct":false},{"answer":"quark","correct":false}],"points":true,"time":60000},{"pointsMultiplier":1,"image":"http://s3-eu-west-1.amazonaws.com/lecturequizuploads/b429c66a-0e63-4beb-9112-e860049ca4b0_opt","imageMetadata":{"id":"b429c66a-0e63-4beb-9112-e860049ca4b0"},"questionFormat":0,"time":60000,"choices":[{"answer":"metals","correct":true},{"answer":"gases","correct":false},{"correct":false,"answer":"nonmetals"},{"correct":false,"answer":"liquids"}],"points":true,"question":"Majority of all elements are","type":"quiz","video":{"id":"","service":"youtube","endTime":0,"startTime":0}},{"imageMetadata":{"id":"87597d8d-08e3-49f8-861c-4d0db46d907e"},"questionFormat":0,"video":{"endTime":0,"id":"","startTime":0,"service":"youtube"},"question":"Fluorine ...","choices":[{"answer":"is a&nbsp;nonmetal","correct":true},{"answer":"has a&nbsp;large atomic radius","correct":false},{"correct":false,"answer":"has a&nbsp;low electronegativity"},{"answer":"is 10 protons strong","correct":false}],"pointsMultiplier":1,"time":60000,"image":"http://s3-eu-west-1.amazonaws.com/lecturequizuploads/87597d8d-08e3-49f8-861c-4d0db46d907e_opt","points":true,"type":"quiz"},{"type":"quiz","video":{"startTime":0,"endTime":0,"service":"youtube","id":""},"image":"http://s3-eu-west-1.amazonaws.com/lecturequizuploads/e5f3013d-77a1-4133-9ffb-768e64f22bea_opt","time":60000,"question":"Metal:","pointsMultiplier":1,"choices":[{"answer":"Ba","correct":true},{"answer":"Te","correct":false},{"answer":"Cl","correct":false},{"answer":"Rn","correct":false}],"imageMetadata":{"id":"e5f3013d-77a1-4133-9ffb-768e64f22bea"},"points":true,"questionFormat":0},{"image":"http://s3-eu-west-1.amazonaws.com/lecturequizuploads/0a05d357-bdd1-40df-95ee-698f0e14e078_opt","questionFormat":0,"pointsMultiplier":1,"type":"quiz","time":60000,"points":true,"imageMetadata":{"id":"0a05d357-bdd1-40df-95ee-698f0e14e078"},"video":{"id":"","startTime":0,"service":"youtube","endTime":0},"choices":[{"answer":"Cs","correct":true},{"correct":true,"answer":"Na"},{"answer":"K","correct":true},{"correct":true,"answer":"Rb"}],"question":"Alkali metal:"},{"choices":[{"correct":true,"answer":"Xe"},{"answer":"Rb","correct":false},{"answer":"Sn","correct":false},{"correct":false,"answer":"F"}],"time":60000,"image":"http://s3-eu-west-1.amazonaws.com/lecturequizuploads/63cbcd4c-b33d-40a7-b4f0-5d8c249360d2_opt","type":"quiz","points":true,"pointsMultiplier":1,"question":"Inert gas...","imageMetadata":{"id":"63cbcd4c-b33d-40a7-b4f0-5d8c249360d2"},"video":{"startTime":0,"id":"","service":"youtube","endTime":0},"questionFormat":0},{"time":60000,"pointsMultiplier":1,"points":true,"imageMetadata":{"id":"94672a05-dd4a-485d-8357-f9b82bc3bcfd"},"image":"http://s3-eu-west-1.amazonaws.com/lecturequizuploads/94672a05-dd4a-485d-8357-f9b82bc3bcfd_opt","questionFormat":0,"video":{"service":"youtube","endTime":0,"id":"","startTime":0},"question":"Halogen...","type":"quiz","choices":[{"answer":"Cl","correct":true},{"answer":"Mg","correct":false},{"correct":false,"answer":"Y"},{"correct":false,"answer":"Ge"}]},{"time":60000,"pointsMultiplier":1,"image":"http://s3-eu-west-1.amazonaws.com/lecturequizuploads/be8e957b-d6bd-4796-bf62-672c3d1b982b_opt","imageMetadata":{"id":"be8e957b-d6bd-4796-bf62-672c3d1b982b"},"question":"Number of protons in Cobalt (Co)","points":true,"video":{"id":"","startTime":0,"service":"youtube","endTime":0},"type":"quiz","questionFormat":0,"choices":[{"answer":"27","correct":true},{"correct":false,"answer":"59"},{"answer":"32","correct":false},{"answer":"4","correct":false}]},{"choices":[{"answer":"8","correct":true},{"correct":false,"answer":"6"},{"correct":false,"answer":"4"},{"answer":"7","correct":false}],"pointsMultiplier":1,"points":true,"image":"http://s3-eu-west-1.amazonaws.com/lecturequizuploads/728676d9-7fb3-412d-b30d-1b1c27729ac0_opt","questionFormat":0,"question":"Number of neutrons in Carbon-14","imageMetadata":{"id":"728676d9-7fb3-412d-b30d-1b1c27729ac0"},"video":{"startTime":0,"service":"youtube","id":"","endTime":0},"time":60000,"type":"quiz"},{"question":"Dalton said...","points":true,"video":{"startTime":0,"endTime":0,"service":"youtube","id":""},"image":"http://s3-eu-west-1.amazonaws.com/lecturequizuploads/5157c627-8810-45b6-8f60-e078c99a23c2","questionFormat":0,"type":"quiz","pointsMultiplier":1,"choices":[{"answer":"atoms of same element have the same mass","correct":true},{"answer":"You can see atoms in a microscope","correct":false},{"answer":"All atoms are the same size","correct":false},{"answer":"An atom changes to a different element in chemical reaction","correct":false}],"time":60000,"imageMetadata":{"id":"5157c627-8810-45b6-8f60-e078c99a23c2"}},{"image":"http://s3-eu-west-1.amazonaws.com/lecturequizuploads/12abe75f-cdbb-4e85-98ef-adb478bcd36b_opt","type":"quiz","imageMetadata":{"id":"12abe75f-cdbb-4e85-98ef-adb478bcd36b"},"video":{"endTime":0,"service":"youtube","id":"","startTime":0},"questionFormat":0,"points":true,"choices":[{"correct":true,"answer":"electrons orbit protons"},{"answer":"electrons and protons orbit","correct":false},{"answer":"electrons are not free to orbit","correct":false},{"answer":"electrons occupy a fixed spot in orbit","correct":false}],"time":60000,"question":"Bohr's model...","pointsMultiplier":1},{"image":"http://s3-eu-west-1.amazonaws.com/lecturequizuploads/812c6447-9668-4fbd-8490-a46eedde5f56_opt","video":{"endTime":0,"startTime":0,"service":"youtube","id":""},"imageMetadata":{"id":"812c6447-9668-4fbd-8490-a46eedde5f56"},"questionFormat":0,"points":true,"pointsMultiplier":1,"choices":[{"answer":"Ar","correct":true},{"answer":"Ti","correct":false},{"correct":false,"answer":"Zr"},{"correct":false,"answer":"Su"}],"time":60000,"type":"quiz","question":"Name the element: 18 protons, 22 neutrons, and 18 electrons"},{"type":"quiz","time":60000,"question":"Protons + neutrons =","pointsMultiplier":1,"imageMetadata":{"id":"02367b67-b1ee-4ef8-8e25-483bc8a0450e"},"video":{"endTime":0,"startTime":0,"id":"","service":"youtube"},"choices":[{"answer":"mass number","correct":true},{"correct":false,"answer":"atomic mass"},{"answer":"atomic number","correct":false},{"answer":"nucleus number","correct":false}],"image":"http://s3-eu-west-1.amazonaws.com/lecturequizuploads/02367b67-b1ee-4ef8-8e25-483bc8a0450e_opt","questionFormat":0,"points":true},{"question":"Large atomic radius","type":"quiz","questionFormat":0,"points":true,"pointsMultiplier":1,"video":{"service":"youtube","endTime":0,"startTime":0,"id":""},"imageMetadata":{"id":"85086524-f64a-4da9-864d-ac437ac1e000"},"image":"http://s3-eu-west-1.amazonaws.com/lecturequizuploads/85086524-f64a-4da9-864d-ac437ac1e000_opt","choices":[{"correct":true,"answer":"Cs"},{"answer":"Re","correct":false},{"answer":"Hg","correct":false},{"correct":false,"answer":"Po"}],"time":60000},{"time":60000,"choices":[{"answer":"Ne","correct":true},{"correct":false,"answer":"F"},{"answer":"O","correct":false},{"correct":false,"answer":"N"}],"image":"http://s3-eu-west-1.amazonaws.com/lecturequizuploads/913748d6-66d9-4fa9-8a47-16ca5a4a9046_opt","pointsMultiplier":1,"video":{"service":"youtube","endTime":0,"id":"","startTime":0},"imageMetadata":{"id":"913748d6-66d9-4fa9-8a47-16ca5a4a9046"},"type":"quiz","question":"Large first ionization energy","questionFormat":0,"points":true},{"time":60000,"pointsMultiplier":1,"questionFormat":0,"image":"http://s3-eu-west-1.amazonaws.com/lecturequizuploads/84f7a7a0-3bc1-41a0-8fc6-91ee883e18d3_opt","imageMetadata":{"id":"84f7a7a0-3bc1-41a0-8fc6-91ee883e18d3"},"points":true,"type":"quiz","video":{"id":"","endTime":0,"startTime":0,"service":"youtube"},"choices":[{"answer":"nucleus","correct":true},{"answer":"neutrons","correct":false},{"answer":"electron shells","correct":false},{"correct":false,"answer":"atomic radius"}],"question":"This becomes stronger the more to the right on the PT"},{"choices":[{"correct":false,"answer":"Li"},{"correct":false,"answer":"Na"},{"answer":"K","correct":false},{"correct":true,"answer":"Rb"}],"questionFormat":0,"time":60000,"type":"quiz","video":{"startTime":0,"endTime":0,"id":"","service":"youtube"},"pointsMultiplier":1,"imageMetadata":{"id":"781829d7-9ea4-4700-b8d0-c133f8da4723"},"points":true,"image":"http://s3-eu-west-1.amazonaws.com/lecturequizuploads/781829d7-9ea4-4700-b8d0-c133f8da4723_opt","question":"This element has 5 electron shells"},{"time":60000,"points":true,"question":"Alkali metals form this cation","pointsMultiplier":1,"choices":[{"correct":true,"answer":"1+"},{"correct":false,"answer":"2+"},{"correct":false,"answer":"1-"},{"correct":false,"answer":"2-"}],"type":"quiz","video":{"id":"","endTime":0,"service":"youtube","startTime":0},"image":"http://s3-eu-west-1.amazonaws.com/lecturequizuploads/da012bd7-239a-46b8-b825-b7a682c7b320_opt","questionFormat":0,"imageMetadata":{"id":"da012bd7-239a-46b8-b825-b7a682c7b320"}},{"question":"Nitrogen forms this ion","type":"quiz","choices":[{"correct":false,"answer":"+3"},{"correct":true,"answer":"-3"},{"correct":false,"answer":"+2"},{"correct":false,"answer":"-2"}],"imageMetadata":{"id":"44857ee3-fcbb-472c-8a72-3da6ccc8efab"},"points":true,"image":"http://s3-eu-west-1.amazonaws.com/lecturequizuploads/44857ee3-fcbb-472c-8a72-3da6ccc8efab_opt","questionFormat":0,"pointsMultiplier":1,"video":{"endTime":0,"startTime":0,"service":"youtube","id":""},"time":60000},{"video":{"id":"","startTime":0,"service":"youtube","endTime":0},"image":"http://s3-eu-west-1.amazonaws.com/lecturequizuploads/bec91f0c-cc54-42a9-a267-346b7f130cbc_opt","questionFormat":0,"time":60000,"question":"Lithium forms this ion","imageMetadata":{"id":"bec91f0c-cc54-42a9-a267-346b7f130cbc"},"type":"quiz","pointsMultiplier":1,"choices":[{"correct":true,"answer":"+1"},{"correct":false,"answer":"-1"},{"answer":"+2","correct":false},{"correct":false,"answer":"-2"}],"points":true},{"choices":[{"answer":"+1","correct":false},{"answer":"+2","correct":false},{"answer":"0","correct":true},{"answer":"-1","correct":false}],"time":60000,"image":"http://s3-eu-west-1.amazonaws.com/lecturequizuploads/9c725310-7d3a-4150-9d44-a913892cfafa_opt","questionFormat":0,"video":{"id":"","service":"youtube","startTime":0,"endTime":0},"imageMetadata":{"id":"9c725310-7d3a-4150-9d44-a913892cfafa"},"type":"quiz","points":true,"pointsMultiplier":1,"question":"Argon forms this ion"}],"answerMap":[4,4,4,4,4,4,4,4,4,4,4,4,4,4,4,4,4,4,4,4,4,4],"author":"kendiaherrington","uuid":"b3c4d37e-6275-4228-8860-16dd0dcc63c8"}