{"author":"Springwell","questions":[{"type":"quiz","question":"Define 'Element'","time":20000,"points":true,"pointsMultiplier":1,"choices":[{"answer":"A type of metal","correct":false},{"answer":"A substance made up of only one type of Atom","correct":true},{"answer":"A substance found on the periodic table","correct":true},{"answer":"A group of atoms, chemically combined","correct":false}],"image":"https://media.kahoot.it/c92fd58e-4aeb-4f8b-b9e3-6a0845a39250","imageMetadata":{"id":"c92fd58e-4aeb-4f8b-b9e3-6a0845a39250","resources":"Photo: © 2017 Getty Images http://www.gettyimages.com"},"resources":"Photo: © 2017 Getty Images http://www.gettyimages.com","video":{"id":"","startTime":0,"endTime":0,"service":"youtube","fullUrl":""},"questionFormat":0},{"type":"quiz","question":"What is the mass number of an element?","time":20000,"points":true,"pointsMultiplier":1,"choices":[{"answer":"The number of neutrons it has","correct":false},{"answer":"The number of protons it has","correct":false},{"answer":"The number of bonds it can make","correct":false},{"answer":"The total number of protons and neutrons an element has","correct":true}],"image":"https://media.kahoot.it/d4b4e808-2332-4124-9790-595809fd9375","imageMetadata":{"id":"d4b4e808-2332-4124-9790-595809fd9375","resources":"Photo: © 2017 Getty Images http://www.gettyimages.com"},"resources":"Photo: © 2017 Getty Images http://www.gettyimages.com","video":{"id":"","startTime":0,"endTime":0,"service":"youtube","fullUrl":""},"questionFormat":0},{"type":"quiz","question":"What is the atomic number of an element?","time":20000,"points":true,"pointsMultiplier":1,"choices":[{"answer":"The number of electrons it has","correct":false},{"answer":"The number of neutrons it has","correct":false},{"answer":"The number of protons it has","correct":true},{"answer":"The total number of electrons and protons it has","correct":false}],"image":"https://media.kahoot.it/c5bc4ef4-811b-4494-9632-9fca3dbbcef5","imageMetadata":{"id":"c5bc4ef4-811b-4494-9632-9fca3dbbcef5","resources":"Photo: © 2017 Getty Images http://www.gettyimages.com"},"resources":"Photo: © 2017 Getty Images http://www.gettyimages.com","video":{"id":"","startTime":0,"endTime":0,"service":"youtube","fullUrl":""},"questionFormat":0},{"type":"quiz","question":"Why do elements in the same group have similar properties?","time":20000,"points":true,"pointsMultiplier":1,"choices":[{"answer":"They have the same number of neutrons","correct":false},{"answer":"They have the same number of outer shell electrons","correct":true},{"answer":"They just do - there is no reason for it","correct":false},{"answer":"They have the same ratio of protons to neutrons","correct":false}],"image":"https://media.kahoot.it/bdd54293-46e2-4a61-a2b9-be139f1b265f","imageMetadata":{"id":"bdd54293-46e2-4a61-a2b9-be139f1b265f","resources":"Photo: © 2017 Getty Images http://www.gettyimages.com"},"resources":"Photo: © 2017 Getty Images http://www.gettyimages.com","video":{"id":"","startTime":0,"endTime":0,"service":"youtube","fullUrl":""},"questionFormat":0},{"type":"quiz","question":"Why are noble gases so unreactive?","time":20000,"points":true,"pointsMultiplier":1,"choices":[{"answer":"They have 6 electrons in their outer shells","correct":false},{"answer":"They have no neutrons","correct":false},{"answer":"They have full outer electron shells","correct":true},{"answer":"They are non-metals","correct":false}],"image":"https://media.kahoot.it/1aae3827-cf1a-4bf1-a730-f3a445506fd9","imageMetadata":{"id":"1aae3827-cf1a-4bf1-a730-f3a445506fd9","resources":"Photo: © 2017 Getty Images http://www.gettyimages.com"},"resources":"Photo: © 2017 Getty Images http://www.gettyimages.com","video":{"id":"","startTime":0,"endTime":0,"service":"youtube","fullUrl":""},"questionFormat":0},{"type":"quiz","question":"What is a compound?","time":20000,"points":true,"pointsMultiplier":1,"choices":[{"answer":"A substance made up of 2+ elements, chemically joined","correct":true},{"answer":"A substance made up of 2+ elements, not chemically joined","correct":false},{"answer":"A mixture of metals","correct":false},{"answer":"A fuel used to power aeroplanes","correct":false}],"image":"https://media.kahoot.it/ad2e2eda-de93-470f-8101-c91301b64dbd","imageMetadata":{"id":"ad2e2eda-de93-470f-8101-c91301b64dbd","resources":"Photo: © 2017 Getty Images http://www.gettyimages.com"},"resources":"Photo: © 2017 Getty Images http://www.gettyimages.com","video":{"id":"","startTime":0,"endTime":0,"service":"youtube","fullUrl":""},"questionFormat":0},{"type":"quiz","question":"How are the atoms held together in molecules?","time":20000,"points":true,"pointsMultiplier":1,"choices":[{"answer":"Metallic bonds","correct":false},{"answer":"Ionic bonds","correct":false},{"answer":"All of the above","correct":false},{"answer":"Covalent bonds","correct":true}],"image":"https://media.kahoot.it/70bb93f2-6276-47da-9661-98d7d6e7eea6","imageMetadata":{"id":"70bb93f2-6276-47da-9661-98d7d6e7eea6","resources":"Photo: © 2017 Getty Images http://www.gettyimages.com"},"resources":"Photo: © 2017 Getty Images http://www.gettyimages.com","video":{"id":"","startTime":0,"endTime":0,"service":"youtube","fullUrl":""},"questionFormat":0},{"type":"quiz","question":"What charge do metal ions have in ionic compounds?","time":20000,"points":true,"pointsMultiplier":1,"choices":[{"answer":"Positive","correct":true},{"answer":"Negative","correct":false}],"image":"https://media.kahoot.it/04af4222-e4e3-4e0b-ac8e-7309b516131a","imageMetadata":{"id":"04af4222-e4e3-4e0b-ac8e-7309b516131a","resources":"Photo: © 2017 Getty Images http://www.gettyimages.com"},"resources":"Photo: © 2017 Getty Images http://www.gettyimages.com","video":{"id":"","startTime":0,"endTime":0,"service":"youtube","fullUrl":""},"questionFormat":0},{"type":"quiz","question":"What happens to the electrons in covalent bonds?","time":20000,"points":true,"pointsMultiplier":1,"choices":[{"answer":"They are transferred","correct":false},{"answer":"They disappear","correct":false},{"answer":"They are shared","correct":true},{"answer":"They form neutrons","correct":false}],"image":"https://media.kahoot.it/11c921eb-4754-46b7-87cf-0675cece4bf1","imageMetadata":{"id":"11c921eb-4754-46b7-87cf-0675cece4bf1","resources":"Photo: © 2017 Getty Images http://www.gettyimages.com"},"resources":"Photo: © 2017 Getty Images http://www.gettyimages.com","video":{"id":"","startTime":0,"endTime":0,"service":"youtube","fullUrl":""},"questionFormat":0},{"type":"quiz","question":"True or false: Limestone is made up of only calcium carbonate (CaCO<sub>3</sub>)","time":20000,"points":true,"pointsMultiplier":1,"choices":[{"answer":"True","correct":false},{"answer":"False","correct":true}],"image":"https://media.kahoot.it/142e51de-bb10-416e-8d40-67639faa9d44","imageMetadata":{"id":"142e51de-bb10-416e-8d40-67639faa9d44","resources":"Photo: © 2017 Getty Images http://www.gettyimages.com"},"resources":"Photo: © 2017 Getty Images http://www.gettyimages.com","video":{"id":"","startTime":0,"endTime":0,"service":"youtube","fullUrl":""},"questionFormat":0},{"type":"quiz","question":"Which of these is an environmental problem with quarrying limestone?","time":20000,"points":true,"pointsMultiplier":1,"choices":[{"answer":"Destruction of habitats of plants and animals","correct":true},{"answer":"Increased disease risk","correct":false},{"answer":"Tourism declines","correct":false},{"answer":"Increased traffic, leading to increased CO<sub>2</sub> emissions","correct":true}],"image":"https://media.kahoot.it/4ac2424b-c159-43e7-9c04-ae4c278308f0","imageMetadata":{"id":"4ac2424b-c159-43e7-9c04-ae4c278308f0","resources":"Photo: © 2017 Getty Images http://www.gettyimages.com"},"resources":"Photo: © 2017 Getty Images http://www.gettyimages.com","video":{"id":"","startTime":0,"endTime":0,"service":"youtube","fullUrl":""},"questionFormat":0},{"type":"quiz","question":"Which of these reactions is correct?","time":20000,"points":true,"pointsMultiplier":1,"choices":[{"answer":"CaCO<sub>3</sub> → Ca(OH)<sub>2</sub> + CO<sub>2</sub>","correct":false},{"answer":"CaCO<sub>3</sub> → CaO + CO<sub>2</sub>","correct":true},{"answer":"CaCO<sub>3</sub> + H<sub>2</sub>O → CaO + CO<sub>2</sub>","correct":false},{"answer":"None of the above","correct":false}],"image":"https://media.kahoot.it/a6795251-f972-47b8-a09c-e31ce17c90dd","imageMetadata":{"id":"a6795251-f972-47b8-a09c-e31ce17c90dd","resources":"Photo: © 2017 Getty Images http://www.gettyimages.com"},"resources":"Photo: © 2017 Getty Images http://www.gettyimages.com","video":{"id":"","startTime":0,"endTime":0,"service":"youtube","fullUrl":""},"questionFormat":0},{"type":"quiz","question":"What can you use to test for CO<sub>2</sub>?","time":20000,"points":true,"pointsMultiplier":1,"choices":[{"answer":"Cobalt chloride paper","correct":false},{"answer":"Limewater","correct":true},{"answer":"Litmus paper","correct":false},{"answer":"The squeaky pop test","correct":false}],"image":"https://media.kahoot.it/b11183ad-36fb-400d-bd6c-71ddbd571ff4","imageMetadata":{"id":"b11183ad-36fb-400d-bd6c-71ddbd571ff4","resources":"Photo: © 2017 Getty Images http://www.gettyimages.com"},"resources":"Photo: © 2017 Getty Images http://www.gettyimages.com","video":{"id":"","startTime":0,"endTime":0,"service":"youtube","fullUrl":""},"questionFormat":0},{"type":"quiz","question":"What do you mix with cement to make mortar?","time":20000,"points":true,"pointsMultiplier":1,"choices":[{"answer":"Sand and aggregate","correct":false},{"answer":"Aggregate","correct":false},{"answer":"Sand","correct":true},{"answer":"Limestone","correct":false}],"image":"https://media.kahoot.it/b7aa895e-0ca0-4516-8ea5-bc460aa641a2","imageMetadata":{"id":"b7aa895e-0ca0-4516-8ea5-bc460aa641a2","resources":"Photo: © 2017 Getty Images http://www.gettyimages.com"},"resources":"Photo: © 2017 Getty Images http://www.gettyimages.com","video":{"id":"","startTime":0,"endTime":0,"service":"youtube","fullUrl":""},"questionFormat":0},{"type":"quiz","question":"What do you call metals not found in ores in the Earth's crust, but as the metal itself?","time":20000,"points":true,"pointsMultiplier":1,"choices":[{"answer":"Natural","correct":false},{"answer":"Ancient","correct":false},{"answer":"Native","correct":true},{"answer":"Transition Metals","correct":false}],"image":"https://media.kahoot.it/6d2203b1-aa92-4810-820a-8459424ccd41","imageMetadata":{"id":"6d2203b1-aa92-4810-820a-8459424ccd41","resources":"Photo: © 2017 Getty Images http://www.gettyimages.com"},"resources":"Photo: © 2017 Getty Images http://www.gettyimages.com","video":{"id":"","startTime":0,"endTime":0,"service":"youtube","fullUrl":""},"questionFormat":0},{"type":"quiz","question":"How do you extract metals that are more reactive than carbon from their ores?","time":20000,"points":true,"pointsMultiplier":1,"choices":[{"answer":"Reduction with carbon","correct":false},{"answer":"Explosions","correct":false},{"answer":"Through the Haber process","correct":false},{"answer":"Electrolysis","correct":true}],"image":"https://media.kahoot.it/bba719ff-fbdc-4a74-8388-543f7992bac2","imageMetadata":{"id":"bba719ff-fbdc-4a74-8388-543f7992bac2","resources":"Photo: © 2017 Getty Images http://www.gettyimages.com"},"resources":"Photo: © 2017 Getty Images http://www.gettyimages.com","video":{"id":"","startTime":0,"endTime":0,"service":"youtube","fullUrl":""},"questionFormat":0},{"type":"quiz","question":"Why is electrolysis so expensive?","time":20000,"points":true,"pointsMultiplier":1,"choices":[{"answer":"Metal is expensive","correct":false},{"answer":"The electrodes are expensive","correct":false},{"answer":"It requires a lot of energy","correct":true},{"answer":"Because it is monopolised by one company","correct":false}],"image":"https://media.kahoot.it/9e2dcef2-ed4e-4da2-89b2-11e9d0af81a3","imageMetadata":{"id":"9e2dcef2-ed4e-4da2-89b2-11e9d0af81a3","resources":"Photo: © 2017 Getty Images http://www.gettyimages.com"},"resources":"Photo: © 2017 Getty Images http://www.gettyimages.com","video":{"id":"","startTime":0,"endTime":0,"service":"youtube","fullUrl":""},"questionFormat":0},{"type":"quiz","question":"How is copper purified?","time":20000,"points":true,"pointsMultiplier":1,"choices":[{"answer":"Bioleaching","correct":false},{"answer":"Phytomining","correct":false},{"answer":"Electrolysis","correct":true},{"answer":"Reduction with carbon","correct":false}],"image":"https://media.kahoot.it/274e42d2-3578-46a3-9a06-98b8b77e3b92","imageMetadata":{"id":"274e42d2-3578-46a3-9a06-98b8b77e3b92","resources":"Photo: © 2017 Getty Images http://www.gettyimages.com"},"resources":"Photo: © 2017 Getty Images http://www.gettyimages.com","video":{"id":"","startTime":0,"endTime":0,"service":"youtube","fullUrl":""},"questionFormat":0},{"type":"quiz","question":"True or false: bioleaching uses plants to extract copper","time":20000,"points":true,"pointsMultiplier":1,"choices":[{"answer":"False","correct":true},{"answer":"True","correct":false}],"image":"https://media.kahoot.it/497d3ac1-97a2-464b-8a38-38c187dd1e6d","imageMetadata":{"id":"497d3ac1-97a2-464b-8a38-38c187dd1e6d","resources":"Photo: © 2017 Getty Images http://www.gettyimages.com"},"resources":"Photo: © 2017 Getty Images http://www.gettyimages.com","video":{"id":"","startTime":0,"endTime":0,"service":"youtube","fullUrl":""},"questionFormat":0},{"type":"quiz","question":"Why should we recycle metals?","time":20000,"points":true,"pointsMultiplier":1,"choices":[{"answer":"Metals are a finite resource","correct":false},{"answer":"It is more energy efficient","correct":false},{"answer":"It is less expensive","correct":false},{"answer":"All of the above","correct":true}],"image":"https://media.kahoot.it/e4d450fc-1f4e-497c-aae8-502064e40fbe","imageMetadata":{"id":"e4d450fc-1f4e-497c-aae8-502064e40fbe","resources":"Photo: © 2017 Getty Images http://www.gettyimages.com"},"resources":"Photo: © 2017 Getty Images http://www.gettyimages.com","video":{"id":"","startTime":0,"endTime":0,"service":"youtube","fullUrl":""},"questionFormat":0},{"type":"quiz","question":"What are the three types of steel?","time":20000,"points":true,"pointsMultiplier":1,"choices":[{"answer":"Low carbon, High carbon and Stainless","correct":true},{"answer":"Zinc-Steel, High iron, Low iron","correct":false},{"answer":"High iron, Low iron, Stainless","correct":false},{"answer":"High carbon, low carbon, Zinc-Steel","correct":false}],"image":"https://media.kahoot.it/03d0a543-59b7-4014-8fa9-37e87e7f5afc","imageMetadata":{"id":"03d0a543-59b7-4014-8fa9-37e87e7f5afc","resources":"Photo: © 2017 Getty Images http://www.gettyimages.com"},"resources":"Photo: © 2017 Getty Images http://www.gettyimages.com","video":{"id":"","startTime":0,"endTime":0,"service":"youtube","fullUrl":""},"questionFormat":0},{"type":"quiz","question":"Why is titanium used for replacement joints?","time":20000,"points":true,"pointsMultiplier":1,"choices":[{"answer":"Bones are made of titanium","correct":false},{"answer":"It is resistant to corrosion","correct":true},{"answer":"It releases toxins into the body","correct":false},{"answer":"It provokes an immune response","correct":false}],"image":"https://media.kahoot.it/24debd34-4c7f-428e-b4c2-fd319ee03918","imageMetadata":{"id":"24debd34-4c7f-428e-b4c2-fd319ee03918","resources":"Photo: © 2017 Getty Images http://www.gettyimages.com"},"resources":"Photo: © 2017 Getty Images http://www.gettyimages.com","video":{"id":"","startTime":0,"endTime":0,"service":"youtube","fullUrl":""},"questionFormat":0},{"type":"quiz","question":"What is crude oil?","time":20000,"points":true,"pointsMultiplier":1,"choices":[{"answer":"Oil that swears a lot","correct":false},{"answer":"Petrol","correct":false},{"answer":"A mixture of hydrocarbons","correct":true},{"answer":"Not very good oil","correct":false}],"image":"https://media.kahoot.it/7e3abbaf-e048-485e-8b39-8fc3fc167cdf","imageMetadata":{"id":"7e3abbaf-e048-485e-8b39-8fc3fc167cdf","resources":"Photo: © 2017 Getty Images http://www.gettyimages.com"},"resources":"Photo: © 2017 Getty Images http://www.gettyimages.com","video":{"id":"","startTime":0,"endTime":0,"service":"youtube","fullUrl":""},"questionFormat":0},{"type":"quiz","question":"What is this?","time":20000,"points":true,"pointsMultiplier":1,"choices":[{"answer":"Ethene","correct":false},{"answer":"Ethane","correct":true},{"answer":"Ethanol","correct":false},{"answer":"Propane","correct":false}],"image":"https://media.kahoot.it/b51c3738-646e-4281-8045-e6ffc4e2235a","imageMetadata":{"id":"b51c3738-646e-4281-8045-e6ffc4e2235a","resources":""},"resources":"","video":{"id":"","startTime":0,"endTime":0,"service":"youtube","fullUrl":""},"questionFormat":0},{"type":"quiz","question":"What is the general formula for alkanes?","time":20000,"points":true,"pointsMultiplier":1,"choices":[{"answer":"C<sub>n</sub>H<sub>2n</sub>","correct":false},{"answer":"C<sub>2n</sub>H<sub>n</sub>","correct":false},{"answer":"C<sub>n</sub>H<sub>2n+2</sub>","correct":true},{"answer":"C<sub>2n+2</sub>H<sub>n</sub>","correct":false}],"image":"https://media.kahoot.it/52bd70ce-2c7e-4c84-92cd-f0628cab7b72","imageMetadata":{"id":"52bd70ce-2c7e-4c84-92cd-f0628cab7b72","resources":"Photo: © 2017 Getty Images http://www.gettyimages.com"},"resources":"Photo: © 2017 Getty Images http://www.gettyimages.com","video":{"id":"","startTime":0,"endTime":0,"service":"youtube","fullUrl":""},"questionFormat":0},{"type":"quiz","question":"How is crude oil separated?","time":20000,"points":true,"pointsMultiplier":1,"choices":[{"answer":"Mitosis","correct":false},{"answer":"Cracking","correct":false},{"answer":"The Haber Process","correct":false},{"answer":"Fractional Distillation","correct":true}],"image":"https://media.kahoot.it/8ef0294a-28d6-4df4-ae28-a8f1a185bfab","imageMetadata":{"id":"8ef0294a-28d6-4df4-ae28-a8f1a185bfab","resources":"Photo: © 2017 Getty Images http://www.gettyimages.com"},"resources":"Photo: © 2017 Getty Images http://www.gettyimages.com","video":{"id":"","startTime":0,"endTime":0,"service":"youtube","fullUrl":""},"questionFormat":0},{"type":"quiz","question":"What happens to the properties of hydrocarbons as they get larger?","time":20000,"points":true,"pointsMultiplier":1,"choices":[{"answer":"Higher boiling point, less viscosity, higher flammability","correct":false},{"answer":"Lower boiling point, less viscosity, higher flammability","correct":false},{"answer":"Higher boiling point, greater viscosity, lower flammability","correct":true},{"answer":"Lower boiling point, greater viscosity, higher flammability","correct":false}],"image":"https://media.kahoot.it/531571cd-1a9a-4ca2-b736-80e07072b356","imageMetadata":{"id":"531571cd-1a9a-4ca2-b736-80e07072b356","resources":"Photo: © 2017 Getty Images http://www.gettyimages.com"},"resources":"Photo: © 2017 Getty Images http://www.gettyimages.com","video":{"id":"","startTime":0,"endTime":0,"service":"youtube","fullUrl":""},"questionFormat":0},{"type":"quiz","question":"How is carbon monoxide (CO) produced?","time":20000,"points":true,"pointsMultiplier":1,"choices":[{"answer":"Incomplete combustion","correct":true},{"answer":"Complete combustion","correct":false},{"answer":"Combustion of wood","correct":false},{"answer":"Partial combustion","correct":true}],"image":"https://media.kahoot.it/4d145760-118a-4696-87ef-dbd5ae4169b1","imageMetadata":{"id":"4d145760-118a-4696-87ef-dbd5ae4169b1","resources":"Photo: © 2017 Getty Images http://www.gettyimages.com"},"resources":"Photo: © 2017 Getty Images http://www.gettyimages.com","video":{"id":"","startTime":0,"endTime":0,"service":"youtube","fullUrl":""},"questionFormat":0},{"type":"quiz","question":"What causes acid rain?","time":20000,"points":true,"pointsMultiplier":1,"choices":[{"answer":"Oxides of nitrogen","correct":true},{"answer":"Carbon dioxide","correct":false},{"answer":"Sulphur dioxide","correct":true},{"answer":"Particulates","correct":false}],"image":"https://media.kahoot.it/1749002f-3fad-4b7f-90d1-1faee562db45","imageMetadata":{"id":"1749002f-3fad-4b7f-90d1-1faee562db45","resources":"Photo: © 2017 Getty Images http://www.gettyimages.com"},"resources":"Photo: © 2017 Getty Images http://www.gettyimages.com","video":{"id":"","startTime":0,"endTime":0,"service":"youtube","fullUrl":""},"questionFormat":0},{"type":"quiz","question":"Which of these is an advantage of using biofuels over conventional fuels?","time":20000,"points":true,"pointsMultiplier":1,"choices":[{"answer":"Renewable","correct":false},{"answer":"Reduces dependence on fossil fuels","correct":false},{"answer":"Fewer SO<sub>2 </sub>emissions","correct":false},{"answer":"All of the above","correct":true}],"image":"https://media.kahoot.it/9d947313-aa4e-41ad-8f00-ff2f615b42fd","imageMetadata":{"id":"9d947313-aa4e-41ad-8f00-ff2f615b42fd","resources":"Photo: © 2017 Getty Images http://www.gettyimages.com"},"resources":"Photo: © 2017 Getty Images http://www.gettyimages.com","video":{"id":"","startTime":0,"endTime":0,"service":"youtube","fullUrl":""},"questionFormat":0},{"type":"quiz","question":"Why are hydrocarbons cracked?","time":20000,"points":true,"pointsMultiplier":1,"choices":[{"answer":"To make the molecules larger","correct":false},{"answer":"To produce shorter, more useful molecules","correct":true},{"answer":"To burn unwanted molecules","correct":false},{"answer":"To remove impurities","correct":false}],"image":"https://media.kahoot.it/edfdb0d7-ec84-40d9-b1d8-afc199e99d3d","imageMetadata":{"id":"edfdb0d7-ec84-40d9-b1d8-afc199e99d3d","resources":"Photo: © 2017 Getty Images http://www.gettyimages.com"},"resources":"Photo: © 2017 Getty Images http://www.gettyimages.com","video":{"id":"","startTime":0,"endTime":0,"service":"youtube","fullUrl":""},"questionFormat":0},{"type":"quiz","question":"What are the conditions required for cracking?","time":20000,"points":true,"pointsMultiplier":1,"choices":[{"answer":"Vaporised hydrocarbons, hot aluminium oxide catalyst","correct":true},{"answer":"Mixed with nitrogen and hydrogen","correct":false},{"answer":"25°C, nickel catalyst","correct":false},{"answer":"Mixed with steam, heated to high temperature","correct":true}],"image":"https://media.kahoot.it/ef448db7-4288-4880-b54a-0a07bf49cdb7","imageMetadata":{"id":"ef448db7-4288-4880-b54a-0a07bf49cdb7","resources":"Photo: © 2017 Getty Images http://www.gettyimages.com"},"resources":"Photo: © 2017 Getty Images http://www.gettyimages.com","video":{"id":"","startTime":0,"endTime":0,"service":"youtube","fullUrl":""},"questionFormat":0},{"type":"quiz","question":"What change does bromine water undergo when an alkene is added?","time":20000,"points":true,"pointsMultiplier":1,"choices":[{"answer":"Clear to orange","correct":false},{"answer":"Orange to colourless","correct":true},{"answer":"Orange to clear","correct":false},{"answer":"No change","correct":false}],"image":"https://media.kahoot.it/ade5b0b7-f5df-4dce-9760-1776bb1f119e","imageMetadata":{"id":"ade5b0b7-f5df-4dce-9760-1776bb1f119e","resources":"Photo: © 2017 Getty Images http://www.gettyimages.com"},"resources":"Photo: © 2017 Getty Images http://www.gettyimages.com","video":{"id":"","startTime":0,"endTime":0,"service":"youtube","fullUrl":""},"questionFormat":0},{"type":"quiz","question":"What are monomers?","time":20000,"points":true,"pointsMultiplier":1,"choices":[{"answer":"Small molecules that join together to form bigger molecules","correct":true},{"answer":"Molecules made up of long, repeating chains","correct":false},{"answer":"Molecules held together with ionic bonds","correct":false},{"answer":"Molecules that are only one colour","correct":false}],"image":"https://media.kahoot.it/13847639-6e45-4128-9917-a3a486a163f9","imageMetadata":{"id":"13847639-6e45-4128-9917-a3a486a163f9","resources":"Photo: © 2017 Getty Images http://www.gettyimages.com"},"resources":"Photo: © 2017 Getty Images http://www.gettyimages.com","video":{"id":"","startTime":0,"endTime":0,"service":"youtube","fullUrl":""},"questionFormat":0},{"type":"quiz","question":"What polymer does ethene make?","time":20000,"points":true,"pointsMultiplier":1,"choices":[{"answer":"Poly(propene)","correct":false},{"answer":"Poly(ethene)","correct":true},{"answer":"PVC","correct":false},{"answer":"Polythene","correct":true}],"image":"https://media.kahoot.it/5f3cad1c-9f43-49d9-bc6b-2093686444a6_opt","imageMetadata":{"id":"5f3cad1c-9f43-49d9-bc6b-2093686444a6","resources":""},"resources":"","video":{"id":"","startTime":0,"endTime":0,"service":"youtube","fullUrl":""},"questionFormat":0},{"type":"quiz","question":"True or false: All polymers are biodegradable","time":20000,"points":true,"pointsMultiplier":1,"choices":[{"answer":"True","correct":false},{"answer":"False","correct":true}],"image":"https://media.kahoot.it/bfd5a915-7004-4007-9caf-4365585aafcc","imageMetadata":{"id":"bfd5a915-7004-4007-9caf-4365585aafcc","resources":"Photo: © 2017 Getty Images http://www.gettyimages.com"},"resources":"Photo: © 2017 Getty Images http://www.gettyimages.com","video":{"id":"","startTime":0,"endTime":0,"service":"youtube","fullUrl":""},"questionFormat":0},{"type":"quiz","question":"How can ethanol be produced?","time":20000,"points":true,"pointsMultiplier":1,"choices":[{"answer":"Fermentation of plants","correct":true},{"answer":"The Haber process","correct":false},{"answer":"Cracking","correct":false},{"answer":"Hydration of ethene with steam","correct":true}],"image":"https://media.kahoot.it/6fa06eb3-11df-4c39-a925-7da056a9ae46","imageMetadata":{"id":"6fa06eb3-11df-4c39-a925-7da056a9ae46","resources":"Photo: © 2017 Getty Images http://www.gettyimages.com"},"resources":"Photo: © 2017 Getty Images http://www.gettyimages.com","video":{"id":"","startTime":0,"endTime":0,"service":"youtube","fullUrl":""},"questionFormat":0},{"type":"quiz","question":"Which has a higher boiling point - water or vegetable oils?","time":20000,"points":true,"pointsMultiplier":1,"choices":[{"answer":"Water","correct":false},{"answer":"Vegetable oils","correct":true}],"image":"https://media.kahoot.it/dc7ce4cc-46a4-45bb-a807-5a01ee29c515","imageMetadata":{"id":"dc7ce4cc-46a4-45bb-a807-5a01ee29c515","resources":"Photo: © 2017 Getty Images http://www.gettyimages.com"},"resources":"Photo: © 2017 Getty Images http://www.gettyimages.com","video":{"id":"","startTime":0,"endTime":0,"service":"youtube","fullUrl":""},"questionFormat":0},{"type":"quiz","question":"What is an emuslion?","time":20000,"points":true,"pointsMultiplier":1,"choices":[{"answer":"A mixture of two normally immiscible liquids","correct":true},{"answer":"A mixture of gases","correct":false},{"answer":"A solid dissolved in a liquid","correct":false},{"answer":"A painted wall in a house","correct":false}],"image":"https://media.kahoot.it/1ac48942-5aef-41c3-b699-d634d5ca6909","imageMetadata":{"id":"1ac48942-5aef-41c3-b699-d634d5ca6909","resources":"Photo: © 2017 Getty Images http://www.gettyimages.com"},"resources":"Photo: © 2017 Getty Images http://www.gettyimages.com","video":{"id":"","startTime":0,"endTime":0,"service":"youtube","fullUrl":""},"questionFormat":0},{"type":"quiz","question":"Which end of an emulsifier molecule binds to oil?","time":20000,"points":true,"pointsMultiplier":1,"choices":[{"answer":"Hydrophobic","correct":true},{"answer":"Hydrophilic","correct":false}],"image":"https://media.kahoot.it/8c4d0abc-9fc6-4e06-b7d9-343c088f5f51","imageMetadata":{"id":"8c4d0abc-9fc6-4e06-b7d9-343c088f5f51","resources":"Photo: © 2017 Getty Images http://www.gettyimages.com"},"resources":"Photo: © 2017 Getty Images http://www.gettyimages.com","video":{"id":"","startTime":0,"endTime":0,"service":"youtube","fullUrl":""},"questionFormat":0},{"type":"quiz","question":"What conditions are required for hydrogenating (hardening) vegetable oils?","time":20000,"points":true,"pointsMultiplier":1,"choices":[{"answer":"Nickel catalyst, 60°C","correct":true},{"answer":"Iron catalyst, 60°C","correct":false},{"answer":"Acid catalyst, 60°C","correct":false},{"answer":"Nickel catalyst, 60°F","correct":false}],"image":"https://media.kahoot.it/f2aa9cab-20ce-4e0f-b9b8-0da3f9f5e3e4","imageMetadata":{"id":"f2aa9cab-20ce-4e0f-b9b8-0da3f9f5e3e4","resources":"Photo: © 2017 Getty Images http://www.gettyimages.com"},"resources":"Photo: © 2017 Getty Images http://www.gettyimages.com","video":{"id":"","startTime":0,"endTime":0,"service":"youtube","fullUrl":""},"questionFormat":0},{"type":"quiz","question":"What are the layer of the Earth, from inside out?","time":20000,"points":true,"pointsMultiplier":1,"choices":[{"answer":"Mantle, crust, core","correct":false},{"answer":"Radius, diameter, circumference","correct":false},{"answer":"Crust, mantle, core","correct":false},{"answer":"Core, mantle, crust","correct":true}],"image":"https://media.kahoot.it/75512b1b-1ac4-4202-b21e-fad761ee1aba","imageMetadata":{"id":"75512b1b-1ac4-4202-b21e-fad761ee1aba","resources":"Photo: © 2017 Getty Images http://www.gettyimages.com"},"resources":"Photo: © 2017 Getty Images http://www.gettyimages.com","video":{"id":"","startTime":0,"endTime":0,"service":"youtube","fullUrl":""},"questionFormat":0},{"type":"quiz","question":"Why do tectonic plates move?","time":20000,"points":true,"pointsMultiplier":1,"choices":[{"answer":"Comission currents","correct":false},{"answer":"Convection currents","correct":true},{"answer":"Connection currents","correct":false},{"answer":"Conduction currents","correct":false}],"image":"https://media.kahoot.it/e863a40d-fefd-4b63-aff0-b6186d92599a","imageMetadata":{"id":"e863a40d-fefd-4b63-aff0-b6186d92599a","resources":"Photo: © 2017 Getty Images http://www.gettyimages.com"},"resources":"Photo: © 2017 Getty Images http://www.gettyimages.com","video":{"id":"","startTime":0,"endTime":0,"service":"youtube","fullUrl":""},"questionFormat":0},{"type":"quiz","question":"What is the Earth's atmosphere like today?","time":20000,"points":true,"pointsMultiplier":1,"choices":[{"answer":"90% oxygen, 10% carbon dioxide","correct":false},{"answer":"100% oxygen","correct":false},{"answer":"78% nitrogen, 21% oxygen, trace other gases","correct":true},{"answer":"50% argon, 50% oxygen","correct":false}],"image":"https://media.kahoot.it/59d18ea8-df6b-4696-bba4-97011f9a6a21","imageMetadata":{"id":"59d18ea8-df6b-4696-bba4-97011f9a6a21","resources":"Photo: © 2017 Getty Images http://www.gettyimages.com"},"resources":"Photo: © 2017 Getty Images http://www.gettyimages.com","video":{"id":"","startTime":0,"endTime":0,"service":"youtube","fullUrl":""},"questionFormat":0},{"type":"quiz","question":"How did oxygen become part of the Earth's atmosphere?","time":20000,"points":true,"pointsMultiplier":1,"choices":[{"answer":"Combustion","correct":false},{"answer":"The Haber Process","correct":false},{"answer":"Photosynthesis by plants","correct":true},{"answer":"Photosynthesis by algae","correct":true}],"image":"https://media.kahoot.it/2e7ac537-e320-4e34-807c-85ca917619d2","imageMetadata":{"id":"2e7ac537-e320-4e34-807c-85ca917619d2","resources":"Photo: © 2017 Getty Images http://www.gettyimages.com"},"resources":"Photo: © 2017 Getty Images http://www.gettyimages.com","video":{"id":"","startTime":0,"endTime":0,"service":"youtube","fullUrl":""},"questionFormat":0},{"type":"quiz","question":"Why are increased levels of CO<sub>2</sub> in the oceans a problem?","time":20000,"points":true,"pointsMultiplier":1,"choices":[{"answer":"It smells bad","correct":false},{"answer":"It makes the oceans alkaline","correct":false},{"answer":"It makes the oceans acidic","correct":true},{"answer":"It makes the fish more tasty","correct":false}],"image":"https://media.kahoot.it/0cd05f21-6c8b-473f-8422-a5ae31dad1c5","imageMetadata":{"id":"0cd05f21-6c8b-473f-8422-a5ae31dad1c5","resources":"Photo: © 2017 Getty Images http://www.gettyimages.com"},"resources":"Photo: © 2017 Getty Images http://www.gettyimages.com","video":{"id":"","startTime":0,"endTime":0,"service":"youtube","fullUrl":""},"questionFormat":0}],"answerMap":[4,4,4,4,4,4,4,2,4,2,4,4,4,4,4,4,4,4,2,4,4,4,4,4,4,4,4,4,4,4,4,4,4,4,4,2,4,2,4,2,4,4,4,4,4,4],"uuid":"c23979f1-1b0c-42fb-9c02-1f64990a2e82"}