{"author":"Msaysha","questions":[{"type":"quiz","question":"Which is&nbsp;<b>an electron arrangement of a Noble Gas</b>?","time":20000,"points":true,"pointsMultiplier":1,"choices":[{"answer":"2.8.8","correct":true},{"answer":"2.8.1","correct":false},{"answer":"2.8.18.7","correct":false},{"answer":"2.8.2","correct":false}],"image":"http://s3-eu-west-1.amazonaws.com/lecturequizuploads/2aa43a1f-d3ad-4206-bee1-6e6110788215","imageMetadata":{"id":"2aa43a1f-d3ad-4206-bee1-6e6110788215"},"video":{"id":"","startTime":0,"endTime":0,"service":"youtube"},"questionFormat":0},{"type":"quiz","question":"Which is&nbsp;<b>TRUE</b>&nbsp;about the 'Noble Gases'?","time":20000,"points":true,"pointsMultiplier":1,"choices":[{"answer":"argon used in lamp to make metal filament a better conductor","correct":false},{"answer":"they are very reactive","correct":false},{"answer":"share or gain electrons to form a chemical bond","correct":false},{"answer":"argon is used in welding to stop oxidation of the metal","correct":true}],"image":"http://s3-eu-west-1.amazonaws.com/lecturequizuploads/b4cdaa35-55ba-4280-b4e8-d1ee4ee72e8a","imageMetadata":{"id":"b4cdaa35-55ba-4280-b4e8-d1ee4ee72e8a"},"video":{"id":"","startTime":0,"endTime":0,"service":"youtube"},"questionFormat":0},{"type":"quiz","question":"Which statement is&nbsp;<b>TRUE</b>&nbsp;about the trend, with increasing atomic number, down Group 0","time":20000,"points":true,"pointsMultiplier":1,"choices":[{"answer":"&nbsp;the density decreases","correct":false},{"answer":"&nbsp;the melting points decrease","correct":false},{"answer":"the reactivity decreases","correct":false},{"answer":"the boiling points increase","correct":true}],"image":"http://s3-eu-west-1.amazonaws.com/lecturequizuploads/bd28773e-9c23-47ac-9d1e-ded43844f7fd","imageMetadata":{"id":"bd28773e-9c23-47ac-9d1e-ded43844f7fd"},"video":{"id":"","startTime":0,"endTime":0,"service":"youtube"},"questionFormat":0},{"type":"quiz","question":"Which statement is&nbsp;<b>TRUE</b>&nbsp;about the Noble Gases?","time":20000,"points":true,"pointsMultiplier":1,"choices":[{"answer":"they are poor conductors of electricity","correct":true},{"answer":"they are good conductors of heat","correct":false},{"answer":"they readily react with chlorine","correct":false},{"answer":"down the group the colour of the gas gets darker","correct":false}],"image":"http://s3-eu-west-1.amazonaws.com/lecturequizuploads/667feada-a575-4cfb-9704-bdbd96c96ce1","imageMetadata":{"id":"667feada-a575-4cfb-9704-bdbd96c96ce1"},"video":{"id":"","startTime":0,"endTime":0,"service":"youtube"},"questionFormat":0},{"type":"quiz","question":"<b>Which gas is used in laser beams</b>?","time":20000,"points":true,"pointsMultiplier":1,"choices":[{"answer":"oxygen","correct":false},{"answer":"nitrogen","correct":false},{"answer":"krypton","correct":true},{"answer":"helium","correct":false}],"image":"http://s3-eu-west-1.amazonaws.com/lecturequizuploads/e2bfc396-d85d-433c-810d-4c11f907c33f","imageMetadata":{"id":"e2bfc396-d85d-433c-810d-4c11f907c33f"},"video":{"id":"","startTime":0,"endTime":0,"service":"youtube"},"questionFormat":0},{"type":"quiz","question":"<b>The Noble Gases consist of</b>?","time":20000,"points":true,"pointsMultiplier":1,"choices":[{"answer":"single atoms","correct":true},{"answer":"diatomic molecules","correct":false},{"answer":"triatomic molecules","correct":false},{"answer":"protons only","correct":false}],"image":"http://s3-eu-west-1.amazonaws.com/lecturequizuploads/ee5392ec-53de-47b7-bafa-9f3fa7296222","imageMetadata":{"id":"ee5392ec-53de-47b7-bafa-9f3fa7296222"},"video":{"id":"","startTime":0,"endTime":0,"service":"youtube"},"questionFormat":0},{"type":"quiz","question":"Which Noble Gas is used in balloons?","time":20000,"points":true,"pointsMultiplier":1,"choices":[{"answer":"hydrogen","correct":false},{"answer":"helium","correct":true},{"answer":"argon","correct":false},{"answer":"neon","correct":false}],"image":"http://s3-eu-west-1.amazonaws.com/lecturequizuploads/dc2545ae-539c-4028-b248-2cee63b34fc6_opt","imageMetadata":{"id":"dc2545ae-539c-4028-b248-2cee63b34fc6"},"video":{"id":"","startTime":0,"endTime":0,"service":"youtube"},"questionFormat":0}],"answerMap":[4,4,4,4,4,4,4],"uuid":"c2b45f1a-427a-42df-b9f2-1785808ecdb8"}