{"author":"nd2000","questions":[{"type":"quiz","question":"A Russian chemist who is given credit for first arranging elements in a usable manner","time":20000,"points":true,"pointsMultiplier":1,"choices":[{"answer":"Rutherford","correct":false},{"answer":"Dalton","correct":false},{"answer":"Mendeleev","correct":true},{"answer":"Moseley","correct":false}],"image":"http://s3-eu-west-1.amazonaws.com/lecturequizuploads/977beebb-ca05-49d9-a68e-fe32ffbdf7b8_opt","imageMetadata":{"id":"977beebb-ca05-49d9-a68e-fe32ffbdf7b8","resources":""},"resources":"","video":{"id":"","startTime":0,"endTime":0,"service":"youtube","fullUrl":""},"questionFormat":0},{"type":"quiz","question":"English scientist who used x-rays to identify atomic number and rearrange the Periodic Table","time":30000,"points":true,"pointsMultiplier":1,"choices":[{"answer":"Rutherford","correct":false},{"answer":"Dalton","correct":false},{"answer":"Mendeleev","correct":false},{"answer":"Moseley","correct":true}],"image":"http://s3-eu-west-1.amazonaws.com/lecturequizuploads/51debba7-b6b4-4f6c-adae-a743ac6e65d9_opt","imageMetadata":{"id":"51debba7-b6b4-4f6c-adae-a743ac6e65d9","resources":""},"resources":"","video":{"id":"","startTime":0,"endTime":0,"service":"youtube","fullUrl":""},"questionFormat":0},{"type":"quiz","question":"The organization responsible for naming newly discovered elements","time":30000,"points":true,"pointsMultiplier":1,"choices":[{"answer":"Stoichiometry","correct":false},{"answer":"IUPAC","correct":true},{"answer":"kPa","correct":false},{"answer":"Uup","correct":false}],"image":"http://s3-eu-west-1.amazonaws.com/lecturequizuploads/45d767bd-8c91-44a7-8f7f-f199920d5148_opt","imageMetadata":{"id":"45d767bd-8c91-44a7-8f7f-f199920d5148","resources":""},"resources":"","video":{"id":"","startTime":0,"endTime":0,"service":"youtube","fullUrl":""},"questionFormat":0},{"type":"quiz","question":"\"Oxidation state\" is a fancy term for ","time":30000,"points":true,"pointsMultiplier":1,"choices":[{"answer":"Atomic Number","correct":false},{"answer":"Atomic Mass","correct":false},{"answer":"Charge","correct":true},{"answer":"Electron Configuration","correct":false}],"image":"http://s3-eu-west-1.amazonaws.com/lecturequizuploads/08eb3b1b-d1c3-4a9e-8e98-f8f65fc6b102_opt","imageMetadata":{"id":"08eb3b1b-d1c3-4a9e-8e98-f8f65fc6b102","resources":""},"resources":"","video":{"id":"","startTime":0,"endTime":0,"service":"youtube","fullUrl":""},"questionFormat":0},{"type":"quiz","question":"How is the periodic table organized?","time":30000,"points":true,"pointsMultiplier":1,"choices":[{"answer":"Periods are horizontal and groups are vertical","correct":true},{"answer":"Periods are vertical and groups are horizontal","correct":false},{"answer":"Periods and groups are horizontal","correct":false},{"answer":"Periods and groups are vertical","correct":false}],"image":"http://s3-eu-west-1.amazonaws.com/lecturequizuploads/27ef7d6b-5ba8-4d6f-8925-4ec5c7664d62_opt","imageMetadata":{"id":"27ef7d6b-5ba8-4d6f-8925-4ec5c7664d62","resources":""},"resources":"","video":{"id":"","startTime":0,"endTime":0,"service":"youtube","fullUrl":""},"questionFormat":0},{"type":"quiz","question":"The period that an element is found in determines the number of ","time":30000,"points":true,"pointsMultiplier":1,"choices":[{"answer":"valence electrons","correct":false},{"answer":"total electrons","correct":false},{"answer":"rings of electrons","correct":true},{"answer":"ion charge","correct":false}],"image":"http://s3-eu-west-1.amazonaws.com/lecturequizuploads/e4f99e75-0e6f-4474-a672-96980f6dc9da_opt","imageMetadata":{"id":"e4f99e75-0e6f-4474-a672-96980f6dc9da","resources":""},"resources":"","video":{"id":"","startTime":0,"endTime":0,"service":"youtube","fullUrl":""},"questionFormat":0},{"type":"quiz","question":"The group that an element is found in determines an elements'","time":30000,"points":true,"pointsMultiplier":1,"choices":[{"answer":"number of valence electrons","correct":true},{"answer":"rings of electrons","correct":false},{"answer":"nuclear charge","correct":false},{"answer":"radioactivity","correct":false}],"image":"http://s3-eu-west-1.amazonaws.com/lecturequizuploads/2d9cb7a5-09b8-4262-aa55-8423acd19217_opt","imageMetadata":{"id":"2d9cb7a5-09b8-4262-aa55-8423acd19217","resources":""},"resources":"","video":{"id":"","startTime":0,"endTime":0,"service":"youtube","fullUrl":""},"questionFormat":0},{"type":"quiz","question":"Elements that have properties of both metals and nonmetals","time":20000,"points":true,"pointsMultiplier":1,"choices":[{"answer":"Metalloids","correct":true},{"answer":"Noble Gases","correct":false},{"answer":"Transitions","correct":false},{"answer":"Gases","correct":false}],"image":"http://s3-eu-west-1.amazonaws.com/lecturequizuploads/3f13d950-91af-4b4f-b064-e8a71daa03b4_opt","imageMetadata":{"id":"3f13d950-91af-4b4f-b064-e8a71daa03b4","resources":""},"resources":"","video":{"id":"","startTime":0,"endTime":0,"service":"youtube","fullUrl":""},"questionFormat":0},{"type":"quiz","question":"An element is a gas at room temperature.  It could be","time":30000,"points":true,"pointsMultiplier":1,"choices":[{"answer":"a metal or a metalloid","correct":false},{"answer":"a metal or a nonmetal","correct":false},{"answer":"a metalloid or a nonmetal","correct":false},{"answer":"a nonmetal only","correct":true}],"image":"http://s3-eu-west-1.amazonaws.com/lecturequizuploads/ab323f3d-694e-4045-b731-c8e12b8149ff_opt","imageMetadata":{"id":"ab323f3d-694e-4045-b731-c8e12b8149ff","resources":""},"resources":"","video":{"id":"","startTime":0,"endTime":0,"service":"youtube","fullUrl":""},"questionFormat":0},{"type":"quiz","question":"Atoms of metals tend to","time":30000,"points":true,"pointsMultiplier":1,"choices":[{"answer":"lose electrons and form negative ions","correct":false},{"answer":"lose electrons and form positive ions","correct":true},{"answer":"gain electrons and form negative ions","correct":false},{"answer":"gain electrons and form positive ions","correct":false}],"image":"http://s3-eu-west-1.amazonaws.com/lecturequizuploads/ffaee4be-6f8e-450c-b3cd-f9fff19f7cdc_opt","imageMetadata":{"id":"ffaee4be-6f8e-450c-b3cd-f9fff19f7cdc","resources":""},"resources":"","video":{"id":"","startTime":0,"endTime":0,"service":"youtube","fullUrl":""},"questionFormat":0},{"type":"quiz","question":"A Mg atom differs from a Mg+2 ion in that the atom has a ","time":60000,"points":true,"pointsMultiplier":1,"choices":[{"answer":"smaller radius","correct":false},{"answer":"larger radius","correct":true},{"answer":"smaller nucleus","correct":false},{"answer":"larger nucleus","correct":false}],"image":"http://s3-eu-west-1.amazonaws.com/lecturequizuploads/d1843f9c-2de2-45e3-91ff-3b9654719eca_opt","imageMetadata":{"id":"d1843f9c-2de2-45e3-91ff-3b9654719eca","resources":""},"resources":"","video":{"id":"","startTime":0,"endTime":0,"service":"youtube","fullUrl":""},"questionFormat":0},{"type":"quiz","question":"At room temperature, potassium is classified as","time":30000,"points":true,"pointsMultiplier":1,"choices":[{"answer":"a metallic solid","correct":true},{"answer":"a molecular solid","correct":false},{"answer":"a network solid","correct":false},{"answer":"an ionic solid","correct":false}],"image":"http://s3-eu-west-1.amazonaws.com/lecturequizuploads/a97db097-57e8-4bfb-a389-3e562cc3c375_opt","imageMetadata":{"id":"a97db097-57e8-4bfb-a389-3e562cc3c375","resources":""},"resources":"","video":{"id":"","startTime":0,"endTime":0,"service":"youtube","fullUrl":""},"questionFormat":0},{"type":"quiz","question":"On the periodic table, an element classified as a metalloid can be found in ","time":60000,"points":true,"pointsMultiplier":1,"choices":[{"answer":"Period 6, Group 5","correct":false},{"answer":"Period 2, Group 14","correct":false},{"answer":"Period 3, Group 16","correct":false},{"answer":"Period 4, Group 15","correct":true}],"image":"http://s3-eu-west-1.amazonaws.com/lecturequizuploads/65337126-546b-481b-a663-280a89171d90_opt","imageMetadata":{"id":"65337126-546b-481b-a663-280a89171d90","resources":""},"resources":"","video":{"id":"","startTime":0,"endTime":0,"service":"youtube","fullUrl":""},"questionFormat":0},{"type":"quiz","question":"The presence of which ion usually produces a colored solution?","time":30000,"points":true,"pointsMultiplier":1,"choices":[{"answer":"K +1","correct":false},{"answer":"F -1","correct":false},{"answer":"Fe +2","correct":true},{"answer":"S -2","correct":false}],"image":"http://s3-eu-west-1.amazonaws.com/lecturequizuploads/6d808ba6-6a7b-495b-8450-674ee4ad37b8_opt","imageMetadata":{"id":"6d808ba6-6a7b-495b-8450-674ee4ad37b8","resources":""},"resources":"","video":{"id":"","startTime":0,"endTime":0,"service":"youtube","fullUrl":""},"questionFormat":0},{"type":"quiz","question":"Aqueous solutions of compounds containing element X are blue.  Element X could be","time":30000,"points":true,"pointsMultiplier":1,"choices":[{"answer":"Carbon","correct":false},{"answer":"Copper","correct":true},{"answer":"Sodium","correct":false},{"answer":"Potassium","correct":false}],"image":"http://s3-eu-west-1.amazonaws.com/lecturequizuploads/93f7923e-c678-4fca-af3e-80e3977335d3_opt","imageMetadata":{"id":"93f7923e-c678-4fca-af3e-80e3977335d3","resources":""},"resources":"","video":{"id":"","startTime":0,"endTime":0,"service":"youtube","fullUrl":""},"questionFormat":0},{"type":"quiz","question":"Which value represents the first ionization energy of a nonmetal?","time":60000,"points":true,"pointsMultiplier":1,"choices":[{"answer":"498 kJ","correct":false},{"answer":"577 kJ","correct":false},{"answer":"812 kJ","correct":false},{"answer":"1000 kJ","correct":true}],"image":"http://s3-eu-west-1.amazonaws.com/lecturequizuploads/6746e074-b2cf-4725-a91a-1a6a58f9eb3d_opt","imageMetadata":{"id":"6746e074-b2cf-4725-a91a-1a6a58f9eb3d","resources":""},"resources":"","video":{"id":"","startTime":0,"endTime":0,"service":"youtube","fullUrl":""},"questionFormat":0},{"type":"quiz","question":"As atoms of elements in Group 16 are considered from top to bottom, the electronegativity....","time":60000,"points":true,"pointsMultiplier":1,"choices":[{"answer":"decreases","correct":true},{"answer":"increases","correct":false},{"answer":"remains the same","correct":false}],"image":"http://s3-eu-west-1.amazonaws.com/lecturequizuploads/39863290-0b4c-4da5-9100-30bcdf420627_opt","imageMetadata":{"id":"39863290-0b4c-4da5-9100-30bcdf420627","resources":""},"resources":"","video":{"id":"","startTime":0,"endTime":0,"service":"youtube","fullUrl":""},"questionFormat":0},{"type":"quiz","question":"Which properties are most common in nonmetals?","time":60000,"points":true,"pointsMultiplier":1,"choices":[{"answer":"low ionization energy and low electronegativity","correct":false},{"answer":"low ionization energy and high electronegativity","correct":false},{"answer":"high ionization energy and low electronegativity","correct":false},{"answer":"high ionization energy and high electronegativity","correct":true}],"image":"http://s3-eu-west-1.amazonaws.com/lecturequizuploads/340a83ff-3591-4d73-976c-35d19c0174c9_opt","imageMetadata":{"id":"340a83ff-3591-4d73-976c-35d19c0174c9","resources":""},"resources":"","video":{"id":"","startTime":0,"endTime":0,"service":"youtube","fullUrl":""},"questionFormat":0},{"type":"quiz","question":"Which element at STP is a poor conductor of electricity and has a high electronegativity?","time":60000,"points":true,"pointsMultiplier":1,"choices":[{"answer":"Cu","correct":false},{"answer":"S","correct":true},{"answer":"Mg","correct":false},{"answer":"Fe","correct":false}],"image":"http://s3-eu-west-1.amazonaws.com/lecturequizuploads/3760ba53-dabc-4f28-aaf4-dfe13d723ca0_opt","imageMetadata":{"id":"3760ba53-dabc-4f28-aaf4-dfe13d723ca0","resources":""},"resources":"","video":{"id":"","startTime":0,"endTime":0,"service":"youtube","fullUrl":""},"questionFormat":0},{"type":"quiz","question":"According to the reference table, which of the following elements has the smallest radius?","time":60000,"points":true,"pointsMultiplier":1,"choices":[{"answer":"Nickel","correct":true},{"answer":"Cobalt","correct":false},{"answer":"Calcium","correct":false},{"answer":"Potassium","correct":false}],"image":"http://s3-eu-west-1.amazonaws.com/lecturequizuploads/c12a6720-c8c2-462a-a87c-1f1a2cc30964_opt","imageMetadata":{"id":"c12a6720-c8c2-462a-a87c-1f1a2cc30964","resources":""},"resources":"","video":{"id":"","startTime":0,"endTime":0,"service":"youtube","fullUrl":""},"questionFormat":0},{"type":"quiz","question":"At which location in the periodic table would the most active metallic element be found?","time":30000,"points":true,"pointsMultiplier":1,"choices":[{"answer":"in Group 1 at the top","correct":false},{"answer":"in Group 1 at the bottom","correct":true},{"answer":"in Group 17 at the top","correct":false},{"answer":"in Group 17 at the bottom","correct":false}],"image":"http://s3-eu-west-1.amazonaws.com/lecturequizuploads/5da36b77-6b84-4b5b-9dbe-06b303cf2478_opt","imageMetadata":{"id":"5da36b77-6b84-4b5b-9dbe-06b303cf2478","resources":""},"resources":"","video":{"id":"","startTime":0,"endTime":0,"service":"youtube","fullUrl":""},"questionFormat":0},{"type":"quiz","question":"What is the total number of elements in Group 17 that are gases at STP?","time":30000,"points":true,"pointsMultiplier":1,"choices":[{"answer":"1","correct":false},{"answer":"2","correct":true},{"answer":"3","correct":false},{"answer":"4","correct":false}],"image":"http://s3-eu-west-1.amazonaws.com/lecturequizuploads/770a1321-29f5-44be-9ce2-67ef13771e03_opt","imageMetadata":{"id":"770a1321-29f5-44be-9ce2-67ef13771e03","resources":""},"resources":"","video":{"id":"","startTime":0,"endTime":0,"service":"youtube","fullUrl":""},"questionFormat":0},{"type":"quiz","question":"Which elements have the most similar chemical properties?","time":60000,"points":true,"pointsMultiplier":1,"choices":[{"answer":"K and Na","correct":true},{"answer":"K and Cl","correct":false},{"answer":"K and Ca","correct":false},{"answer":"K and S","correct":false}],"image":"http://s3-eu-west-1.amazonaws.com/lecturequizuploads/19911995-0547-47d4-94a7-397c791e8719_opt","imageMetadata":{"id":"19911995-0547-47d4-94a7-397c791e8719","resources":""},"resources":"","video":{"id":"","startTime":0,"endTime":0,"service":"youtube","fullUrl":""},"questionFormat":0},{"type":"quiz","question":"Which element in Group 17 is the most active nonmetal?","time":30000,"points":true,"pointsMultiplier":1,"choices":[{"answer":"Br","correct":false},{"answer":"I","correct":false},{"answer":"Cl","correct":false},{"answer":"F","correct":true}],"image":"http://s3-eu-west-1.amazonaws.com/lecturequizuploads/d2a4fe87-69b5-4d4e-afa0-66753628fbb8_opt","imageMetadata":{"id":"d2a4fe87-69b5-4d4e-afa0-66753628fbb8","resources":""},"resources":"","video":{"id":"","startTime":0,"endTime":0,"service":"youtube","fullUrl":""},"questionFormat":0},{"type":"quiz","question":"The elements Ca and Sr have similar chemical properties because they both have the same","time":60000,"points":true,"pointsMultiplier":1,"choices":[{"answer":"atomic number","correct":false},{"answer":"mass number","correct":false},{"answer":"number of valence electrons","correct":true},{"answer":"number of completely filled subshells","correct":false}],"image":"http://s3-eu-west-1.amazonaws.com/lecturequizuploads/ea120bd3-a801-4449-9037-a2e534c1b210_opt","imageMetadata":{"id":"ea120bd3-a801-4449-9037-a2e534c1b210","resources":""},"resources":"","video":{"id":"","startTime":0,"endTime":0,"service":"youtube","fullUrl":""},"questionFormat":0},{"type":"quiz","question":"Which of these metals loses electrons most readily?","time":60000,"points":true,"pointsMultiplier":1,"choices":[{"answer":"Calcium","correct":false},{"answer":"Magnesium","correct":false},{"answer":"Potassium","correct":true},{"answer":"Sodium","correct":false}],"image":"http://s3-eu-west-1.amazonaws.com/lecturequizuploads/d78b6feb-3e2c-49d6-bfaa-510304b751e5_opt","imageMetadata":{"id":"d78b6feb-3e2c-49d6-bfaa-510304b751e5","resources":""},"resources":"","video":{"id":"","startTime":0,"endTime":0,"service":"youtube","fullUrl":""},"questionFormat":0},{"type":"quiz","question":"Which halogens are gases at room temperature and pressure?","time":60000,"points":true,"pointsMultiplier":1,"choices":[{"answer":"Cl and F","correct":true},{"answer":"Cl and Br","correct":false},{"answer":"I and F","correct":false},{"answer":"I and Br","correct":false}],"image":"http://s3-eu-west-1.amazonaws.com/lecturequizuploads/e75f555f-5707-4632-bae6-8cfdbc35528c_opt","imageMetadata":{"id":"e75f555f-5707-4632-bae6-8cfdbc35528c","resources":""},"resources":"","video":{"id":"","startTime":0,"endTime":0,"service":"youtube","fullUrl":""},"questionFormat":0},{"type":"quiz","question":"An atom of which element in the ground state has a complete outermost energy level?","time":60000,"points":true,"pointsMultiplier":1,"choices":[{"answer":"He","correct":true},{"answer":"Be","correct":false},{"answer":"Hg","correct":false},{"answer":"H","correct":false}],"image":"http://s3-eu-west-1.amazonaws.com/lecturequizuploads/c595260a-6e90-4b1c-9d34-90d7940ffabb_opt","imageMetadata":{"id":"c595260a-6e90-4b1c-9d34-90d7940ffabb","resources":""},"resources":"","video":{"id":"","startTime":0,"endTime":0,"service":"youtube","fullUrl":""},"questionFormat":0},{"type":"quiz","question":"Which element is malleable and ductile?","time":60000,"points":true,"pointsMultiplier":1,"choices":[{"answer":"S","correct":false},{"answer":"Si","correct":false},{"answer":"Ge","correct":false},{"answer":"Au","correct":true}],"image":"http://s3-eu-west-1.amazonaws.com/lecturequizuploads/a7428b9f-7869-4dd8-9197-e9763a6e91ba_opt","imageMetadata":{"id":"a7428b9f-7869-4dd8-9197-e9763a6e91ba","resources":""},"resources":"","video":{"id":"","startTime":0,"endTime":0,"service":"youtube","fullUrl":""},"questionFormat":0},{"type":"quiz","question":"An element with an ionization energy of 1314 kJ/mol and an electronegativity of 3.5 must be a","time":60000,"points":true,"pointsMultiplier":1,"choices":[{"answer":"metal","correct":false},{"answer":"nonmetal","correct":true},{"answer":"metalloid","correct":false},{"answer":"transition metal","correct":false}],"image":"http://s3-eu-west-1.amazonaws.com/lecturequizuploads/9a001ad0-4d4f-43e5-8917-01a8b8c6ab5b_opt","imageMetadata":{"id":"9a001ad0-4d4f-43e5-8917-01a8b8c6ab5b","resources":""},"resources":"","video":{"id":"","startTime":0,"endTime":0,"service":"youtube","fullUrl":""},"questionFormat":0}],"answerMap":[4,4,4,4,4,4,4,4,4,4,4,4,4,4,4,4,3,4,4,4,4,4,4,4,4,4,4,4,4,4],"uuid":"c95012e8-1735-4f52-acaf-b18e637f05d0"}