{"author":"HannahKat_00","questions":[{"type":"quiz","question":"Chemical bonds can form by","time":60000,"points":true,"pointsMultiplier":1,"choices":[{"answer":"An atom replicating itself","correct":false},{"answer":"Two molecules tying together","correct":false},{"answer":"the attraction between a positive and negative nucleus/ions","correct":true},{"answer":"Two atoms tying together","correct":false}],"image":"","video":{"id":"","startTime":0,"endTime":0,"service":"youtube"},"questionFormat":0},{"type":"quiz","question":"To designate an anion, the ending ___ is added to the root","time":60000,"points":true,"pointsMultiplier":1,"choices":[{"answer":"-ous","correct":false},{"answer":"-ide","correct":true},{"answer":"-ic","correct":false},{"answer":"-ite","correct":false}],"image":"","video":{"id":"","startTime":0,"endTime":0,"service":"youtube"},"questionFormat":0},{"type":"quiz","question":"Some nonmetals can lose or gain numbers of&nbsp;","time":60000,"points":true,"pointsMultiplier":1,"choices":[{"answer":"Charges to form an octet","correct":false},{"answer":"Molecules to form an octet","correct":false},{"answer":"Atoms to form an octet","correct":false},{"answer":"electrons to form an octet","correct":true}],"image":"","video":{"id":"","startTime":0,"endTime":0,"service":"youtube"},"questionFormat":0},{"type":"quiz","question":"If ionic bonds form between metals and the nonmetal, oxygen, ...&nbsp;","time":60000,"points":true,"pointsMultiplier":1,"choices":[{"answer":"Oxygen forms","correct":false},{"answer":"Oxides form&nbsp;","correct":true},{"answer":"Rust forms&nbsp;","correct":false},{"answer":"Salts form","correct":false}],"image":"","video":{"id":"","startTime":0,"endTime":0,"service":"youtube"},"questionFormat":0},{"type":"quiz","question":"Most ionic compounds are called ...","time":60000,"points":true,"pointsMultiplier":1,"choices":[{"answer":"Salts","correct":true},{"answer":"Oxides","correct":false},{"answer":"Rust","correct":false},{"answer":"Solutions","correct":false}],"image":"","video":{"id":"","startTime":0,"endTime":0,"service":"youtube"},"questionFormat":0},{"type":"quiz","question":"Binary compounds contain what?","time":60000,"points":true,"pointsMultiplier":1,"choices":[{"answer":"A nonmetallic cation and a metallic anion&nbsp;","correct":false},{"answer":"A metallic cation and a nonmetallic anion","correct":true},{"answer":"A metallic anion and a metallic anion","correct":false},{"answer":"A nonmetallic anion and a nonmetallic cation","correct":false}],"image":"","video":{"id":"","startTime":0,"endTime":0,"service":"youtube"},"questionFormat":0},{"type":"quiz","question":"The charge of a monatomic ion is equal to its&nbsp;","time":60000,"points":true,"pointsMultiplier":1,"choices":[{"answer":"Number of protons","correct":false},{"answer":"Atomic mass","correct":false},{"answer":"Oxidation state&nbsp;","correct":true},{"answer":"Atomic number","correct":false}],"image":"","video":{"id":"","startTime":0,"endTime":0,"service":"youtube"},"questionFormat":0},{"type":"quiz","question":"Subscripts represent what in an ionic compound?","time":60000,"points":true,"pointsMultiplier":1,"choices":[{"answer":"Number of electrons in each element","correct":false},{"answer":"Number of neutrons in each element","correct":false},{"answer":"Number of atoms","correct":false},{"answer":"Number of ions in each element","correct":true}],"image":"","video":{"id":"","startTime":0,"endTime":0,"service":"youtube"},"questionFormat":0},{"type":"quiz","question":"How many rules are there to naming ionic compounds","time":60000,"points":true,"pointsMultiplier":1,"choices":[{"answer":"8","correct":false},{"answer":"2","correct":false},{"answer":"5","correct":true},{"answer":"9","correct":false}],"image":"","video":{"id":"","startTime":0,"endTime":0,"service":"youtube"},"questionFormat":0},{"type":"quiz","question":"The melting points of metals&nbsp;","time":60000,"points":true,"pointsMultiplier":1,"choices":[{"answer":"Are rather close","correct":false},{"answer":"Vary greatly","correct":true},{"answer":"Are the same","correct":false},{"answer":"Are decimals off","correct":false}],"image":"","video":{"id":"","startTime":0,"endTime":0,"service":"youtube"},"questionFormat":0},{"type":"quiz","question":"The movement of mobile electrons around positive metallic cations make","time":60000,"points":true,"pointsMultiplier":1,"choices":[{"answer":"metals good conductors&nbsp;","correct":true},{"answer":"Metals malleable&nbsp;","correct":false},{"answer":"Metals ductile","correct":false},{"answer":"Metals shiny&nbsp;","correct":false}],"image":"","video":{"id":"","startTime":0,"endTime":0,"service":"youtube"},"questionFormat":0},{"type":"quiz","question":"Alloys are classified into two basic types:&nbsp;","time":60000,"points":true,"pointsMultiplier":1,"choices":[{"answer":"Substitutional and Interstitial&nbsp;","correct":true},{"answer":"Substituional and Commercial","correct":false},{"answer":"Commercial and Interstitial","correct":false},{"answer":"Commercial and metals","correct":false}],"image":"","video":{"id":"","startTime":0,"endTime":0,"service":"youtube"},"questionFormat":0}],"answerMap":[4,4,4,4,4,4,4,4,4,4,4,4],"uuid":"cfe555ff-fec2-43b3-817b-524b9b962c7e"}