{"author":"JPKuylen","questions":[{"type":"quiz","question":"Henry Moseley's periodic table was an improvement to the periodic table designed by earlier scientists because Moseley's","time":60000,"points":true,"pointsMultiplier":1,"choices":[{"answer":"ordered elements by atomic mass","correct":false},{"answer":"ordered elements by atomic number","correct":true},{"answer":"was arranged to show periodicity of chemical properties","correct":false},{"answer":"was arranged to show the increase of ionic size","correct":false}],"layout":"CLASSIC","resources":"","video":{"startTime":0,"endTime":0,"service":"youtube","fullUrl":""},"questionFormat":0},{"type":"quiz","question":"The best explanation for the organization of Mendeleev's Periodic Table by atomic mass rather than atomic number is that","time":30000,"points":true,"pointsMultiplier":1,"choices":[{"answer":"atomic mass is unrelated to the chemical reactivity of elements","correct":false},{"answer":"He organized the table prior to the discovery of the atomic #","correct":true},{"answer":"different isotopes of elements have different atomic masses","correct":false},{"answer":"atomic numbers are not affected by the chemical reactivity of elements","correct":false}],"layout":"CLASSIC","resources":"","video":{"startTime":0,"endTime":0,"service":"youtube","fullUrl":""},"questionFormat":0},{"type":"quiz","question":"Which statement&nbsp;<b>best</b>&nbsp;describes Moseley's contribution to the modern Periodic Table?","time":30000,"points":true,"pointsMultiplier":1,"choices":[{"answer":"Recognizing that elements have similar properties","correct":false},{"answer":"Grouping&nbsp;elements&nbsp;based&nbsp;on&nbsp;their&nbsp;physical&nbsp;properties","correct":false},{"answer":"Predicting the properties of missing elements","correct":false},{"answer":"Providing a basis for ordering elements","correct":true}],"layout":"CLASSIC","resources":"","video":{"startTime":0,"endTime":0,"service":"youtube","fullUrl":""},"questionFormat":0},{"type":"quiz","question":"Which of the following would change the current theory of the atom?","time":20000,"points":true,"pointsMultiplier":1,"choices":[{"answer":"electrons found on an 8th energy level","correct":false},{"answer":"a carbon atom being discovered with 12 neutrons","correct":false},{"answer":"a new subatomic particle is discovered","correct":true},{"answer":"a new element is discovered","correct":false}],"layout":"CLASSIC","resources":"","video":{"startTime":0,"endTime":0,"service":"youtube","fullUrl":""},"questionFormat":0},{"type":"quiz","question":"Which model was developed after alpha particles were bombarded onto sheets of gold?","time":30000,"points":true,"pointsMultiplier":1,"choices":[{"answer":"Rutherford Model","correct":true},{"answer":"Bohr Model","correct":false},{"answer":"Quantum Model","correct":false},{"answer":"Planck Model","correct":false}],"layout":"CLASSIC","resources":"","video":{"startTime":0,"endTime":0,"service":"youtube","fullUrl":""},"questionFormat":0},{"type":"quiz","question":"Which model of the atom was used as a result of JJ Thomson's cathode ray experiments?","time":20000,"points":true,"pointsMultiplier":1,"choices":[{"answer":"Plum pudding model","correct":true},{"answer":"Nuclear model","correct":false},{"answer":"Planetary model","correct":false},{"answer":"Quantum mechanical model","correct":false}],"layout":"CLASSIC","resources":"","video":{"startTime":0,"endTime":0,"service":"youtube","fullUrl":""},"questionFormat":0},{"type":"quiz","question":"Which statement is&nbsp;<b>true</b>&nbsp;comparing the research of Bohr, Rutherford, and Dalton?","time":60000,"points":true,"pointsMultiplier":1,"choices":[{"answer":"Dalton &amp; Bohr modeled their experiments &amp; their theories after Rutherford","correct":false},{"answer":"Rutherford &amp; Bohr modeled their experiments &amp; their theories after Dalton","correct":true}],"layout":"CLASSIC","resources":"","video":{"startTime":0,"endTime":0,"service":"youtube","fullUrl":""},"questionFormat":0},{"type":"quiz","question":"Which of the following statements is most accurate regarding atoms?","time":20000,"points":true,"pointsMultiplier":1,"choices":[{"answer":"Most atoms cannot combine with other atoms.","correct":false},{"answer":"Chemical reactions divide atoms into smaller units.","correct":false},{"answer":"Atoms of the same element may have different atomic (mass) numbers.","correct":true},{"answer":"Atoms only contain protons.","correct":false}],"layout":"CLASSIC","resources":"","video":{"startTime":0,"endTime":0,"service":"youtube","fullUrl":""},"questionFormat":0},{"type":"quiz","question":"Li has an ionization energy of 520 kJ/mol. F has an ionization energy of 1680 kJ/mol. Why?","time":240000,"points":true,"pointsMultiplier":1,"choices":[{"answer":"Fluorine has strong attractive forces between the nucleus and the electrons","correct":true},{"answer":"Lithium has a smaller atomic radius than fluorine.","correct":false}],"layout":"CLASSIC","resources":"","video":{"startTime":0,"endTime":0,"service":"youtube","fullUrl":""},"questionFormat":0},{"type":"quiz","question":"<b>Ionization</b>&nbsp;or ionisation is the process by which an atom acquires a negative or positive charge. ","time":30000,"points":true,"pointsMultiplier":1,"choices":[{"answer":"True","correct":true},{"answer":"False","correct":false}],"layout":"TRUE_FALSE","resources":"","video":{"startTime":0,"endTime":0,"service":"youtube","fullUrl":""},"questionFormat":0},{"type":"quiz","question":"ionization energy does this across the periodic table...","time":30000,"points":true,"pointsMultiplier":1,"choices":[{"answer":"decreases","correct":false},{"answer":"increases","correct":true},{"answer":"sweeps it","correct":false},{"answer":"eats on it","correct":false}],"layout":"CLASSIC","image":"http://s3-eu-west-1.amazonaws.com/lecturequizuploads/2538178b-fa45-496e-af9b-25d6f62273d1_opt","imageMetadata":{"id":"2538178b-fa45-496e-af9b-25d6f62273d1","resources":""},"resources":"","video":{"id":"","startTime":0,"endTime":0,"service":"youtube"},"questionFormat":0},{"type":"quiz","question":"Shielding causes low ionization across a period.","time":30000,"points":true,"pointsMultiplier":1,"choices":[{"answer":"True","correct":true},{"answer":"False","correct":false}],"layout":"CLASSIC","image":"http://s3-eu-west-1.amazonaws.com/lecturequizuploads/5578db9a-b569-432d-b955-1f55b8ffc674_opt","imageMetadata":{"id":"5578db9a-b569-432d-b955-1f55b8ffc674","resources":""},"resources":"","video":{"id":"","startTime":0,"endTime":0,"service":"youtube","fullUrl":""},"questionFormat":0},{"type":"quiz","question":"As atomic radius increases, ionization energy___","time":30000,"points":true,"pointsMultiplier":1,"choices":[{"answer":"Decreases","correct":true},{"answer":"Increases","correct":false},{"answer":"Remains he same","correct":false}],"layout":"CLASSIC","image":"http://s3-eu-west-1.amazonaws.com/lecturequizuploads/161936ed-4ea8-4518-bd21-e521e76d3b32_opt","imageMetadata":{"id":"161936ed-4ea8-4518-bd21-e521e76d3b32","effects":[],"resources":""},"resources":"","video":{"id":"","startTime":0,"endTime":0,"service":"youtube","fullUrl":""},"questionFormat":0},{"type":"quiz","question":"Who did the Gold Foil Experiment?","time":30000,"points":true,"pointsMultiplier":1,"choices":[{"answer":"Ernest Rutherford","correct":true},{"answer":"Niels Bohr","correct":false},{"answer":"John Dalton","correct":false},{"answer":"JJ Thomson","correct":false}],"layout":"CLASSIC","image":"https://media.kahoot.it/87ee3b58-4047-4875-b25b-a9bb4b74dde0","imageMetadata":{"id":"87ee3b58-4047-4875-b25b-a9bb4b74dde0","resources":""},"resources":"","video":{"id":"","startTime":0,"endTime":0,"service":"youtube","fullUrl":""},"questionFormat":0},{"type":"quiz","question":"Atomic Radius","time":30000,"points":true,"pointsMultiplier":1,"choices":[{"answer":"Half the distance between 2 identical nuclei atoms.","correct":true},{"answer":"Half the distance half a cell","correct":false},{"answer":"Half the distance of the earth","correct":false},{"answer":"Half the distance Element","correct":false}],"layout":"CLASSIC","image":"https://media.kahoot.it/962c4e7a-b4fb-4899-9e1b-cf0c7ed7f10b_opt","imageMetadata":{"id":"962c4e7a-b4fb-4899-9e1b-cf0c7ed7f10b","contentType":"image/jpeg","width":285,"height":177,"resources":""},"resources":"","video":{"id":"","startTime":0,"endTime":0,"service":"youtube","fullUrl":""},"questionFormat":0}],"answerMap":[4,4,4,4,4,4,2,4,2,2,4,2,3,4,4],"uuid":"d2d13ef5-4b00-46e6-b773-62fa15666d8e"}