{"author":"MrB_FFCAHSC","questions":[{"type":"quiz","question":"What does WHMIS stand for?","time":30000,"points":true,"pointsMultiplier":1,"choices":[{"answer":"Working Hazardous Metals Investigation System","correct":false},{"answer":"Workplace Hazardous Materials Information System","correct":true},{"answer":"Workplace Hazardous Minerals Innovation System","correct":false},{"answer":"Worker Hazardous Materials Information System","correct":false}],"image":"http://s3-eu-west-1.amazonaws.com/lecturequizuploads/27e73987-dbc4-4875-a0d0-e738dbe1b76c_opt","imageMetadata":{"id":"27e73987-dbc4-4875-a0d0-e738dbe1b76c"},"video":{"id":"","startTime":0,"endTime":0,"service":"youtube"},"questionFormat":0},{"type":"quiz","question":"What is the term for the change from a liquid to a solid?","time":30000,"points":true,"pointsMultiplier":1,"choices":[{"answer":"Evaporation","correct":false},{"answer":"Freezing","correct":true},{"answer":"Melting","correct":false},{"answer":"Sublimation","correct":false}],"image":"http://s3-eu-west-1.amazonaws.com/lecturequizuploads/03d02a5e-59f7-482f-b00e-9308c5c8cade_opt","imageMetadata":{"id":"03d02a5e-59f7-482f-b00e-9308c5c8cade"},"video":{"id":"","startTime":0,"endTime":0,"service":"youtube"},"questionFormat":0},{"type":"quiz","question":"Which of the following is considered pure substance?","time":30000,"points":true,"pointsMultiplier":1,"choices":[{"answer":"Colloid","correct":false},{"answer":"Compound","correct":true},{"answer":"Solution","correct":false},{"answer":"Suspension","correct":false}],"image":"http://s3-eu-west-1.amazonaws.com/lecturequizuploads/b313a169-a760-455f-8c27-e1491948470c_opt","imageMetadata":{"id":"b313a169-a760-455f-8c27-e1491948470c"},"video":{"id":"","startTime":0,"endTime":0,"service":"youtube"},"questionFormat":0},{"type":"quiz","question":"What is the difference between a heterogeneous and a homogeneous mixture?","time":30000,"points":true,"pointsMultiplier":1,"choices":[{"answer":"Hetero - Can see two different parts; Homo - Looks the same","correct":true},{"answer":"Hetero - Looks the same; Homo -&nbsp;Can see two different parts","correct":false},{"answer":"Both looks the same throughout.","correct":false},{"answer":"Both have&nbsp;two different parts that can be seen.","correct":false}],"image":"http://s3-eu-west-1.amazonaws.com/lecturequizuploads/2c4ffed6-f55d-46aa-b8b1-70231c8bebad_opt","imageMetadata":{"id":"2c4ffed6-f55d-46aa-b8b1-70231c8bebad"},"video":{"id":"","startTime":0,"endTime":0,"service":"youtube"},"questionFormat":0},{"type":"quiz","question":"Which of the following is NOT a physical property of an element?","time":30000,"points":true,"pointsMultiplier":1,"choices":[{"answer":"Ductility","correct":false},{"answer":"Luster","correct":false},{"answer":"Ability to Burn","correct":true},{"answer":"Melting Point","correct":false}],"image":"http://s3-eu-west-1.amazonaws.com/lecturequizuploads/b7577d1d-bc42-498a-9c88-591fa2fb2d50_opt","imageMetadata":{"id":"b7577d1d-bc42-498a-9c88-591fa2fb2d50"},"video":{"id":"","startTime":0,"endTime":0,"service":"youtube"},"questionFormat":0},{"type":"quiz","question":"Which of the following is NOT a chemical property?","time":30000,"points":true,"pointsMultiplier":1,"choices":[{"answer":"Behaviour in Air","correct":false},{"answer":"Crystal Structure","correct":true},{"answer":"Reacts with Acids","correct":false},{"answer":"Reacts with Water","correct":false}],"image":"http://s3-eu-west-1.amazonaws.com/lecturequizuploads/f47289b6-a7f4-456a-a038-9546629763eb_opt","imageMetadata":{"id":"f47289b6-a7f4-456a-a038-9546629763eb"},"video":{"id":"","startTime":0,"endTime":0,"service":"youtube"},"questionFormat":0},{"type":"quiz","question":"Which example demonstrates a <b>physical change</b> in a substance?","time":30000,"points":true,"pointsMultiplier":1,"choices":[{"answer":"Water evaporates from a puddle.","correct":true},{"answer":"A marshmellow is cooked over a bonfire.","correct":false},{"answer":"Baking soda and vinegar form a gas when mixed together.","correct":false},{"answer":"A iron bumper rusts.","correct":false}],"image":"http://s3-eu-west-1.amazonaws.com/lecturequizuploads/23423485-564e-4e83-86ba-bf46483ab317_opt","imageMetadata":{"id":"23423485-564e-4e83-86ba-bf46483ab317"},"video":{"id":"","startTime":0,"endTime":0,"service":"youtube"},"questionFormat":0},{"type":"quiz","question":"Which is NOT evidence of a chemical change?","time":30000,"points":true,"pointsMultiplier":1,"choices":[{"answer":"Heat is released or absorbed.","correct":false},{"answer":"Odour was produced.","correct":false},{"answer":"A solid melts.","correct":true},{"answer":"A precipitate forms.","correct":false}],"image":"http://s3-eu-west-1.amazonaws.com/lecturequizuploads/2474bdd7-4ea9-4997-ba23-326f4c12213f_opt","imageMetadata":{"id":"2474bdd7-4ea9-4997-ba23-326f4c12213f"},"video":{"id":"","startTime":0,"endTime":0,"service":"youtube"},"questionFormat":0},{"type":"quiz","question":"What particles can be found in the nucleus of an atom?","time":30000,"points":true,"pointsMultiplier":1,"choices":[{"answer":"Protons and neutrons","correct":true},{"answer":"Protons and electrons","correct":false},{"answer":"Neutrons and electrons","correct":false},{"answer":"Protons, neutrons and electrons","correct":false}],"image":"http://s3-eu-west-1.amazonaws.com/lecturequizuploads/5ed6c2d9-7da9-4a83-86ad-4207cd286748_opt","imageMetadata":{"id":"5ed6c2d9-7da9-4a83-86ad-4207cd286748"},"video":{"id":"","startTime":0,"endTime":0,"service":"youtube"},"questionFormat":0},{"type":"quiz","question":"Neutrons have a...","time":30000,"points":true,"pointsMultiplier":1,"choices":[{"answer":"positive charge","correct":false},{"answer":"negative charge","correct":false},{"answer":"neutral charge","correct":true}],"image":"http://s3-eu-west-1.amazonaws.com/lecturequizuploads/f5ed544e-8904-4e98-bd27-8296e3eed7bd_opt","imageMetadata":{"id":"f5ed544e-8904-4e98-bd27-8296e3eed7bd"},"video":{"id":"","startTime":0,"endTime":0,"service":"youtube"},"questionFormat":0},{"type":"quiz","question":"Protons have a...","time":30000,"points":true,"pointsMultiplier":1,"choices":[{"answer":"positive charge","correct":true},{"answer":"negative charge","correct":false},{"answer":"neutral charge","correct":false}],"image":"http://s3-eu-west-1.amazonaws.com/lecturequizuploads/9fd51348-4896-403d-a0a9-58cb3d737639_opt","imageMetadata":{"id":"9fd51348-4896-403d-a0a9-58cb3d737639"},"video":{"id":"","startTime":0,"endTime":0,"service":"youtube"},"questionFormat":0},{"type":"quiz","question":"Electrons have a...","time":30000,"points":true,"pointsMultiplier":1,"choices":[{"answer":"positive charge","correct":false},{"answer":"negative charge","correct":true},{"answer":"neutral charge","correct":false}],"image":"http://s3-eu-west-1.amazonaws.com/lecturequizuploads/6221ca3a-a648-484c-b3f1-60b2bef72c33_opt","imageMetadata":{"id":"6221ca3a-a648-484c-b3f1-60b2bef72c33"},"video":{"id":"","startTime":0,"endTime":0,"service":"youtube"},"questionFormat":0},{"type":"quiz","question":"Which element is found in group 5, period 4?","time":30000,"points":true,"pointsMultiplier":1,"choices":[{"answer":"Vanadium","correct":true},{"answer":"Zirconium","correct":false},{"answer":"Chromium","correct":false},{"answer":"Yttrium","correct":false}],"image":"http://s3-eu-west-1.amazonaws.com/lecturequizuploads/7909af8d-8a0a-46b0-b777-cff3e8a5064a_opt","imageMetadata":{"id":"7909af8d-8a0a-46b0-b777-cff3e8a5064a"},"video":{"id":"","startTime":0,"endTime":0,"service":"youtube"},"questionFormat":0},{"type":"quiz","question":"Which element is found at group 16, period 4?","time":30000,"points":true,"pointsMultiplier":1,"choices":[{"answer":"Bromine","correct":false},{"answer":"Iodine","correct":false},{"answer":"Selenium","correct":true},{"answer":"Arsenic","correct":false}],"image":"http://s3-eu-west-1.amazonaws.com/lecturequizuploads/f17a2caf-2ca3-4d08-9ca3-d03d86a43711_opt","imageMetadata":{"id":"f17a2caf-2ca3-4d08-9ca3-d03d86a43711"},"video":{"id":"","startTime":0,"endTime":0,"service":"youtube"},"questionFormat":0},{"type":"quiz","question":"What is the atomic number of an element represent?","time":30000,"points":true,"pointsMultiplier":1,"choices":[{"answer":"Protons","correct":true},{"answer":"Neutrons","correct":false},{"answer":"Electrons","correct":false}],"image":"http://s3-eu-west-1.amazonaws.com/lecturequizuploads/3b466bf2-ee2b-414c-a9b8-cd2b8b6b324e_opt","imageMetadata":{"id":"3b466bf2-ee2b-414c-a9b8-cd2b8b6b324e"},"video":{"id":"","startTime":0,"endTime":0,"service":"youtube"},"questionFormat":0},{"type":"quiz","question":"What is the atomic mass?","time":30000,"points":true,"pointsMultiplier":1,"choices":[{"answer":"Mass of protons and neutrons of an atom","correct":false},{"answer":"Mass of one atom of an element","correct":true},{"answer":"Mass of the protons of an atom","correct":false},{"answer":"Mass of electrons of an atom","correct":false}],"image":"http://s3-eu-west-1.amazonaws.com/lecturequizuploads/77576d2a-dcb0-49ee-99ca-27f9e28aade5_opt","imageMetadata":{"id":"77576d2a-dcb0-49ee-99ca-27f9e28aade5"},"video":{"id":"","startTime":0,"endTime":0,"service":"youtube"},"questionFormat":0},{"type":"quiz","question":"An element that is shiny and ductile is known as a...","time":30000,"points":true,"pointsMultiplier":1,"choices":[{"answer":"metal","correct":true},{"answer":"metalloid","correct":false},{"answer":"non-metal","correct":false}],"image":"http://s3-eu-west-1.amazonaws.com/lecturequizuploads/8143e2f2-b3b8-4330-937a-3ccf1ed97765_opt","imageMetadata":{"id":"8143e2f2-b3b8-4330-937a-3ccf1ed97765"},"video":{"id":"","startTime":0,"endTime":0,"service":"youtube"},"questionFormat":0},{"type":"quiz","question":"An element that is dull and brittle&nbsp;is known as a...","time":30000,"points":true,"pointsMultiplier":1,"choices":[{"answer":"metal","correct":false},{"answer":"metalloid","correct":false},{"answer":"non-metal","correct":true}],"image":"http://s3-eu-west-1.amazonaws.com/lecturequizuploads/1f6065ca-9931-4d1d-80b3-93a41c32a58b_opt","imageMetadata":{"id":"1f6065ca-9931-4d1d-80b3-93a41c32a58b"},"video":{"id":"","startTime":0,"endTime":0,"service":"youtube"},"questionFormat":0},{"type":"quiz","question":"An element that is dull but conducts electricity&nbsp;could be a...","time":30000,"points":true,"pointsMultiplier":1,"choices":[{"answer":"metal","correct":false},{"answer":"metalloid","correct":true},{"answer":"non-metal","correct":false}],"image":"http://s3-eu-west-1.amazonaws.com/lecturequizuploads/49e8d7e0-0046-4276-ae98-cda2c6fcb64f_opt","imageMetadata":{"id":"49e8d7e0-0046-4276-ae98-cda2c6fcb64f"},"video":{"id":"","startTime":0,"endTime":0,"service":"youtube"},"questionFormat":0},{"type":"quiz","question":"The very reactive non-metals of group 17 are known as...","time":30000,"points":true,"pointsMultiplier":1,"choices":[{"answer":"halogens","correct":true},{"answer":"noble gases","correct":false},{"answer":"alkali metals","correct":false},{"answer":"alkaline earth metals","correct":false}],"image":"http://s3-eu-west-1.amazonaws.com/lecturequizuploads/517da3d1-459b-45eb-a514-cfc399b88893_opt","imageMetadata":{"id":"517da3d1-459b-45eb-a514-cfc399b88893"},"video":{"id":"","startTime":0,"endTime":0,"service":"youtube"},"questionFormat":0},{"type":"quiz","question":"The very reactive metals of group 1 are known as...","time":30000,"points":true,"pointsMultiplier":1,"choices":[{"answer":"halogens","correct":false},{"answer":"noble gases","correct":false},{"answer":"alkali metals","correct":true},{"answer":"alkaline earth metals","correct":false}],"image":"http://s3-eu-west-1.amazonaws.com/lecturequizuploads/04b1abe6-8c64-4a8f-a1a8-0849b3d9d47f_opt","imageMetadata":{"id":"04b1abe6-8c64-4a8f-a1a8-0849b3d9d47f"},"video":{"id":"","startTime":0,"endTime":0,"service":"youtube"},"questionFormat":0}],"answerMap":[4,4,4,4,4,4,4,4,4,3,3,3,4,4,3,4,3,3,3,4,4],"uuid":"edfad274-7b98-4486-927d-0f7201df176c"}