{"author":"MrsLongWP","uuid":"fa7c7d0c-edfb-4017-88ab-112c8dcfa5fd","questions":[{"video":{"service":"youtube","id":"","endTime":0,"startTime":0},"time":20000,"image":"","questionFormat":0,"points":true,"choices":[{"answer":"positive","correct":true},{"answer":"negative","correct":false},{"correct":false,"answer":"no charge"}],"question":"What kind of charge does a proton have?","type":"quiz","pointsMultiplier":1},{"type":"quiz","choices":[{"answer":"positive","correct":false},{"answer":"negative","correct":false},{"answer":"no charge","correct":true}],"time":20000,"video":{"service":"youtube","id":"","startTime":0,"endTime":0},"questionFormat":0,"points":true,"question":"What kind of charge does a neutron have?","pointsMultiplier":1,"image":""},{"image":"","question":"What kind of charge does an electron&nbsp;have?","choices":[{"correct":false,"answer":"positive"},{"correct":true,"answer":"negative"},{"correct":false,"answer":"no charge"}],"time":20000,"questionFormat":0,"video":{"id":"","service":"youtube","endTime":0,"startTime":0},"pointsMultiplier":1,"points":true,"type":"quiz"},{"questionFormat":0,"question":"What is at the center of an atom?","time":20000,"image":"","choices":[{"answer":"particles","correct":false},{"answer":"electrons","correct":false},{"correct":true,"answer":"nucleus"}],"video":{"service":"youtube","id":"","startTime":0,"endTime":0},"pointsMultiplier":1,"points":true,"type":"quiz"},{"image":"","type":"quiz","time":20000,"pointsMultiplier":1,"points":true,"video":{"id":"","endTime":0,"startTime":0,"service":"youtube"},"questionFormat":0,"choices":[{"answer":"phone number","correct":false},{"answer":"element","correct":false},{"answer":"atom","correct":false},{"correct":true,"answer":"atomic number"}],"question":"What is the number of protons in an atom called?"},{"question":"What percentage of the elements are metals?","video":{"id":"","startTime":0,"endTime":0,"service":"youtube"},"choices":[{"correct":false,"answer":"25%"},{"answer":"50%","correct":false},{"answer":"75%","correct":true},{"answer":"100%","correct":false}],"type":"quiz","image":"","pointsMultiplier":1,"time":20000,"questionFormat":0,"points":true},{"pointsMultiplier":1,"questionFormat":0,"question":"Which is <b>NOT</b> true about metals?","type":"quiz","image":"","time":20000,"points":true,"choices":[{"answer":"they are shiny and silvery-grey","correct":false},{"answer":"conduct heat and electricity","correct":false},{"correct":false,"answer":"they are bendable"},{"answer":"they like loud music","correct":true}],"video":{"id":"","endTime":0,"startTime":0,"service":"youtube"}},{"time":20000,"questionFormat":0,"points":true,"type":"quiz","video":{"endTime":0,"id":"","startTime":0,"service":"youtube"},"image":"","pointsMultiplier":1,"question":"Which is&nbsp;<b>TRUE</b> about non-metals?","choices":[{"correct":false,"answer":"they are shiny and silvery-grey"},{"answer":"conduct heat and electricity","correct":false},{"correct":false,"answer":"they do not conduct heat and electricity well"},{"answer":"they are bendable<span id=\"_wysihtml5-undo\" class=\"_wysihtml5-temp\"></span>","correct":true}]},{"pointsMultiplier":1,"video":{"startTime":0,"endTime":0,"service":"youtube","id":""},"image":"","choices":[{"correct":true,"answer":"1"},{"correct":false,"answer":"2"},{"correct":false,"answer":"3"},{"answer":"4","correct":false}],"time":20000,"points":true,"questionFormat":0,"question":"How many types of atoms are in an element?","type":"quiz"},{"image":"","time":20000,"questionFormat":0,"question":"How many of the 110 elements are found in nature?","type":"quiz","pointsMultiplier":1,"video":{"service":"youtube","endTime":0,"id":"","startTime":0},"points":true,"choices":[{"answer":"70","correct":false},{"answer":"90","correct":true},{"answer":"80","correct":false},{"answer":"100","correct":false}]},{"question":"What are the four states of matter?","type":"quiz","video":{"endTime":0,"id":"","startTime":0,"service":"youtube"},"time":20000,"pointsMultiplier":1,"questionFormat":0,"choices":[{"answer":"solid, liquid, frozen, gas","correct":false},{"answer":"solid, liquid, gas, air","correct":false},{"answer":"solid, liquid, gas, plasma","correct":true}],"points":true,"image":""},{"question":"When ice begins to turn into water, what is this called?","video":{"id":"","service":"youtube","endTime":0,"startTime":0},"image":"","choices":[{"answer":"boiling point","correct":false},{"answer":"melting point","correct":true},{"answer":"freezing point","correct":false}],"pointsMultiplier":1,"questionFormat":0,"time":20000,"points":true,"type":"quiz"},{"choices":[{"answer":"boiling point","correct":true},{"correct":false,"answer":"melting point"},{"answer":"freezing point","correct":false}],"questionFormat":0,"image":"","pointsMultiplier":1,"question":"When water is heated to where it starts to bubble, what is this called?","points":true,"time":20000,"video":{"endTime":0,"service":"youtube","id":"","startTime":0},"type":"quiz"},{"pointsMultiplier":1,"time":20000,"video":{"id":"","endTime":0,"startTime":0,"service":"youtube"},"type":"quiz","points":true,"questionFormat":0,"image":"","question":"Plasma is rare on Earth, but it makes up ____% of all matter in the universe.","choices":[{"correct":false,"answer":"100"},{"correct":false,"answer":"23"},{"answer":"78","correct":false},{"correct":true,"answer":"99"}]},{"time":20000,"questionFormat":0,"pointsMultiplier":1,"choices":[{"answer":"melting point","correct":false},{"correct":true,"answer":"sublimation"},{"answer":"freezing point","correct":false},{"correct":false,"answer":"magic"}],"points":true,"question":"When dry ice&nbsp;changes from a solid to a gas WITHOUT becoming a liquid, this is called _____.","video":{"endTime":0,"startTime":0,"id":"","service":"youtube"},"image":"","type":"quiz"},{"questionFormat":0,"points":true,"video":{"service":"youtube","startTime":0,"endTime":0,"id":""},"type":"quiz","question":"The most reactive elements in the periodic table have ___ electron in their outer shell.","time":20000,"image":"","choices":[{"answer":"1","correct":true},{"answer":"2","correct":false},{"answer":"3","correct":false},{"correct":false,"answer":"4"}],"pointsMultiplier":1},{"choices":[{"answer":"left","correct":true},{"correct":false,"answer":"right"},{"answer":"top","correct":false},{"answer":"bottom","correct":false}],"pointsMultiplier":1,"type":"quiz","question":"You can find the most reactive elements in the periodic table&nbsp;on the __ side","points":true,"video":{"id":"","startTime":0,"service":"youtube","endTime":0},"questionFormat":0,"time":20000,"image":""},{"points":true,"pointsMultiplier":1,"choices":[{"correct":false,"answer":"proton"},{"correct":false,"answer":"neutron"},{"correct":false,"answer":"electron"},{"answer":"nucleus","correct":true}],"image":"","question":"The dense center of an atom is called the ____.","type":"quiz","questionFormat":0,"time":20000,"video":{"service":"youtube","startTime":0,"endTime":0,"id":""}},{"choices":[{"correct":false,"answer":"cool it down"},{"answer":"add heat","correct":true}],"time":20000,"questionFormat":0,"question":"How do you change from solid to liquid?","image":"","pointsMultiplier":1,"video":{"endTime":0,"service":"youtube","id":"","startTime":0},"points":true,"type":"quiz"},{"time":20000,"type":"quiz","points":true,"pointsMultiplier":1,"question":"Which of the following DOES NOT take the shape of their container?","video":{"startTime":0,"service":"youtube","endTime":0,"id":""},"image":"http://s3-eu-west-1.amazonaws.com/lecturequizuploads/5d7abf45-02c6-4468-ae21-0c04835e9789","choices":[{"answer":"solid","correct":true},{"correct":false,"answer":"liquid"},{"correct":false,"answer":"gas"}],"imageMetadata":{"id":"5d7abf45-02c6-4468-ae21-0c04835e9789"},"questionFormat":0},{"time":20000,"points":true,"pointsMultiplier":1,"video":{"startTime":0,"endTime":0,"service":"youtube","id":""},"type":"quiz","question":"What does the number above Xe stand for?","questionFormat":0,"image":"http://s3-eu-west-1.amazonaws.com/lecturequizuploads/284bd327-b038-47e9-949f-2264a6fc466e_opt","choices":[{"answer":"atomic mass","correct":false},{"correct":false,"answer":"symbol"},{"correct":false,"answer":"name"},{"answer":"atomic number","correct":true}],"imageMetadata":{"id":"284bd327-b038-47e9-949f-2264a6fc466e"}},{"choices":[{"correct":false,"answer":"atomic mass"},{"answer":"symbol","correct":true},{"correct":false,"answer":"name"},{"correct":false,"answer":"atomic number"}],"type":"quiz","points":true,"time":20000,"imageMetadata":{"id":"284bd327-b038-47e9-949f-2264a6fc466e"},"questionFormat":0,"video":{"service":"youtube","id":"","startTime":0,"endTime":0},"image":"http://s3-eu-west-1.amazonaws.com/lecturequizuploads/284bd327-b038-47e9-949f-2264a6fc466e_opt","question":"What do you call the&nbsp;Xe?","pointsMultiplier":1},{"type":"quiz","video":{"id":"","endTime":0,"service":"youtube","startTime":0},"imageMetadata":{"id":"284bd327-b038-47e9-949f-2264a6fc466e"},"image":"http://s3-eu-west-1.amazonaws.com/lecturequizuploads/284bd327-b038-47e9-949f-2264a6fc466e_opt","question":"What is the number underneath Xenon?","pointsMultiplier":1,"choices":[{"answer":"atomic mass","correct":true},{"correct":false,"answer":"symbol"},{"answer":"name","correct":false},{"answer":"atomic number","correct":false}],"questionFormat":0,"time":20000,"points":true},{"question":"What is the name of the table of elements arranged by atomic number?","video":{"startTime":0,"endTime":0,"id":"","service":"youtube"},"imageMetadata":{"id":"60765dbc-ecc6-417b-93a3-40e9929e0db2"},"image":"http://s3-eu-west-1.amazonaws.com/lecturequizuploads/60765dbc-ecc6-417b-93a3-40e9929e0db2","type":"quiz","points":true,"time":20000,"questionFormat":0,"pointsMultiplier":1,"choices":[{"correct":false,"answer":"Table of Contents"},{"correct":false,"answer":"Kitchen Table"},{"correct":true,"answer":"Periodic Table"}]}],"answerMap":[3,3,3,3,4,4,4,4,4,4,3,3,3,4,4,4,4,4,2,3,4,4,4,3]}