{"author":"MrsLongWP","questions":[{"type":"quiz","question":"What kind of charge does a proton have?","time":20000,"points":true,"pointsMultiplier":1,"choices":[{"answer":"positive","correct":true},{"answer":"negative","correct":false},{"answer":"no charge","correct":false}],"image":"","video":{"id":"","startTime":0,"endTime":0,"service":"youtube"},"questionFormat":0},{"type":"quiz","question":"What kind of charge does a neutron have?","time":20000,"points":true,"pointsMultiplier":1,"choices":[{"answer":"positive","correct":false},{"answer":"negative","correct":false},{"answer":"no charge","correct":true}],"image":"","video":{"id":"","startTime":0,"endTime":0,"service":"youtube"},"questionFormat":0},{"type":"quiz","question":"What kind of charge does an electron&nbsp;have?","time":20000,"points":true,"pointsMultiplier":1,"choices":[{"answer":"positive","correct":false},{"answer":"negative","correct":true},{"answer":"no charge","correct":false}],"image":"","video":{"id":"","startTime":0,"endTime":0,"service":"youtube"},"questionFormat":0},{"type":"quiz","question":"What is at the center of an atom?","time":20000,"points":true,"pointsMultiplier":1,"choices":[{"answer":"particles","correct":false},{"answer":"electrons","correct":false},{"answer":"nucleus","correct":true}],"image":"","video":{"id":"","startTime":0,"endTime":0,"service":"youtube"},"questionFormat":0},{"type":"quiz","question":"What is the number of protons in an atom called?","time":20000,"points":true,"pointsMultiplier":1,"choices":[{"answer":"phone number","correct":false},{"answer":"element","correct":false},{"answer":"atom","correct":false},{"answer":"atomic number","correct":true}],"image":"","video":{"id":"","startTime":0,"endTime":0,"service":"youtube"},"questionFormat":0},{"type":"quiz","question":"What percentage of the elements are metals?","time":20000,"points":true,"pointsMultiplier":1,"choices":[{"answer":"25%","correct":false},{"answer":"50%","correct":false},{"answer":"75%","correct":true},{"answer":"100%","correct":false}],"image":"","video":{"id":"","startTime":0,"endTime":0,"service":"youtube"},"questionFormat":0},{"type":"quiz","question":"Which is <b>NOT</b> true about metals?","time":20000,"points":true,"pointsMultiplier":1,"choices":[{"answer":"they are shiny and silvery-grey","correct":false},{"answer":"conduct heat and electricity","correct":false},{"answer":"they are bendable","correct":false},{"answer":"they like loud music","correct":true}],"image":"","video":{"id":"","startTime":0,"endTime":0,"service":"youtube"},"questionFormat":0},{"type":"quiz","question":"Which is&nbsp;<b>TRUE</b> about non-metals?","time":20000,"points":true,"pointsMultiplier":1,"choices":[{"answer":"they are shiny and silvery-grey","correct":false},{"answer":"conduct heat and electricity","correct":false},{"answer":"they do not conduct heat and electricity well","correct":false},{"answer":"they are bendable<span id=\"_wysihtml5-undo\" class=\"_wysihtml5-temp\"></span>","correct":true}],"image":"","video":{"id":"","startTime":0,"endTime":0,"service":"youtube"},"questionFormat":0},{"type":"quiz","question":"How many types of atoms are in an element?","time":20000,"points":true,"pointsMultiplier":1,"choices":[{"answer":"1","correct":true},{"answer":"2","correct":false},{"answer":"3","correct":false},{"answer":"4","correct":false}],"image":"","video":{"id":"","startTime":0,"endTime":0,"service":"youtube"},"questionFormat":0},{"type":"quiz","question":"How many of the 110 elements are found in nature?","time":20000,"points":true,"pointsMultiplier":1,"choices":[{"answer":"70","correct":false},{"answer":"90","correct":true},{"answer":"80","correct":false},{"answer":"100","correct":false}],"image":"","video":{"id":"","startTime":0,"endTime":0,"service":"youtube"},"questionFormat":0},{"type":"quiz","question":"What are the four states of matter?","time":20000,"points":true,"pointsMultiplier":1,"choices":[{"answer":"solid, liquid, frozen, gas","correct":false},{"answer":"solid, liquid, gas, air","correct":false},{"answer":"solid, liquid, gas, plasma","correct":true}],"image":"","video":{"id":"","startTime":0,"endTime":0,"service":"youtube"},"questionFormat":0},{"type":"quiz","question":"When ice begins to turn into water, what is this called?","time":20000,"points":true,"pointsMultiplier":1,"choices":[{"answer":"boiling point","correct":false},{"answer":"melting point","correct":true},{"answer":"freezing point","correct":false}],"image":"","video":{"id":"","startTime":0,"endTime":0,"service":"youtube"},"questionFormat":0},{"type":"quiz","question":"When water is heated to where it starts to bubble, what is this called?","time":20000,"points":true,"pointsMultiplier":1,"choices":[{"answer":"boiling point","correct":true},{"answer":"melting point","correct":false},{"answer":"freezing point","correct":false}],"image":"","video":{"id":"","startTime":0,"endTime":0,"service":"youtube"},"questionFormat":0},{"type":"quiz","question":"Plasma is rare on Earth, but it makes up ____% of all matter in the universe.","time":20000,"points":true,"pointsMultiplier":1,"choices":[{"answer":"100","correct":false},{"answer":"23","correct":false},{"answer":"78","correct":false},{"answer":"99","correct":true}],"image":"","video":{"id":"","startTime":0,"endTime":0,"service":"youtube"},"questionFormat":0},{"type":"quiz","question":"When dry ice&nbsp;changes from a solid to a gas WITHOUT becoming a liquid, this is called _____.","time":20000,"points":true,"pointsMultiplier":1,"choices":[{"answer":"melting point","correct":false},{"answer":"sublimation","correct":true},{"answer":"freezing point","correct":false},{"answer":"magic","correct":false}],"image":"","video":{"id":"","startTime":0,"endTime":0,"service":"youtube"},"questionFormat":0},{"type":"quiz","question":"The most reactive elements in the periodic table have ___ electron in their outer shell.","time":20000,"points":true,"pointsMultiplier":1,"choices":[{"answer":"1","correct":true},{"answer":"2","correct":false},{"answer":"3","correct":false},{"answer":"4","correct":false}],"image":"","video":{"id":"","startTime":0,"endTime":0,"service":"youtube"},"questionFormat":0},{"type":"quiz","question":"You can find the most reactive elements in the periodic table&nbsp;on the __ side","time":20000,"points":true,"pointsMultiplier":1,"choices":[{"answer":"left","correct":true},{"answer":"right","correct":false},{"answer":"top","correct":false},{"answer":"bottom","correct":false}],"image":"","video":{"id":"","startTime":0,"endTime":0,"service":"youtube"},"questionFormat":0},{"type":"quiz","question":"The dense center of an atom is called the ____.","time":20000,"points":true,"pointsMultiplier":1,"choices":[{"answer":"proton","correct":false},{"answer":"neutron","correct":false},{"answer":"electron","correct":false},{"answer":"nucleus","correct":true}],"image":"","video":{"id":"","startTime":0,"endTime":0,"service":"youtube"},"questionFormat":0},{"type":"quiz","question":"How do you change from solid to liquid?","time":20000,"points":true,"pointsMultiplier":1,"choices":[{"answer":"cool it down","correct":false},{"answer":"add heat","correct":true}],"image":"","video":{"id":"","startTime":0,"endTime":0,"service":"youtube"},"questionFormat":0},{"type":"quiz","question":"Which of the following DOES NOT take the shape of their container?","time":20000,"points":true,"pointsMultiplier":1,"choices":[{"answer":"solid","correct":true},{"answer":"liquid","correct":false},{"answer":"gas","correct":false}],"image":"http://s3-eu-west-1.amazonaws.com/lecturequizuploads/5d7abf45-02c6-4468-ae21-0c04835e9789","imageMetadata":{"id":"5d7abf45-02c6-4468-ae21-0c04835e9789"},"video":{"id":"","startTime":0,"endTime":0,"service":"youtube"},"questionFormat":0},{"type":"quiz","question":"What does the number above Xe stand for?","time":20000,"points":true,"pointsMultiplier":1,"choices":[{"answer":"atomic mass","correct":false},{"answer":"symbol","correct":false},{"answer":"name","correct":false},{"answer":"atomic number","correct":true}],"image":"http://s3-eu-west-1.amazonaws.com/lecturequizuploads/284bd327-b038-47e9-949f-2264a6fc466e_opt","imageMetadata":{"id":"284bd327-b038-47e9-949f-2264a6fc466e"},"video":{"id":"","startTime":0,"endTime":0,"service":"youtube"},"questionFormat":0},{"type":"quiz","question":"What do you call the&nbsp;Xe?","time":20000,"points":true,"pointsMultiplier":1,"choices":[{"answer":"atomic mass","correct":false},{"answer":"symbol","correct":true},{"answer":"name","correct":false},{"answer":"atomic number","correct":false}],"image":"http://s3-eu-west-1.amazonaws.com/lecturequizuploads/284bd327-b038-47e9-949f-2264a6fc466e_opt","imageMetadata":{"id":"284bd327-b038-47e9-949f-2264a6fc466e"},"video":{"id":"","startTime":0,"endTime":0,"service":"youtube"},"questionFormat":0},{"type":"quiz","question":"What is the number underneath Xenon?","time":20000,"points":true,"pointsMultiplier":1,"choices":[{"answer":"atomic mass","correct":true},{"answer":"symbol","correct":false},{"answer":"name","correct":false},{"answer":"atomic number","correct":false}],"image":"http://s3-eu-west-1.amazonaws.com/lecturequizuploads/284bd327-b038-47e9-949f-2264a6fc466e_opt","imageMetadata":{"id":"284bd327-b038-47e9-949f-2264a6fc466e"},"video":{"id":"","startTime":0,"endTime":0,"service":"youtube"},"questionFormat":0},{"type":"quiz","question":"What is the name of the table of elements arranged by atomic number?","time":20000,"points":true,"pointsMultiplier":1,"choices":[{"answer":"Table of Contents","correct":false},{"answer":"Kitchen Table","correct":false},{"answer":"Periodic Table","correct":true}],"image":"http://s3-eu-west-1.amazonaws.com/lecturequizuploads/60765dbc-ecc6-417b-93a3-40e9929e0db2","imageMetadata":{"id":"60765dbc-ecc6-417b-93a3-40e9929e0db2"},"video":{"id":"","startTime":0,"endTime":0,"service":"youtube"},"questionFormat":0}],"answerMap":[3,3,3,3,4,4,4,4,4,4,3,3,3,4,4,4,4,4,2,3,4,4,4,3],"uuid":"fa7c7d0c-edfb-4017-88ab-112c8dcfa5fd"}